# vtk DataFile Version 3.0
CutFEM Results
ASCII
DATASET UNSTRUCTURED_GRID
POINTS 14959 float
0.000000 0.000000 0.000000
0.600000 0.000000 0.000000
0.600000 0.410000 0.000000
0.000000 0.410000 0.000000
2.200000 0.000000 0.000000
2.200000 0.410000 0.000000
0.005000 0.000000 0.000000
0.010000 0.000000 0.000000
0.015000 0.000000 0.000000
0.020000 0.000000 0.000000
0.025000 0.000000 0.000000
0.030000 0.000000 0.000000
0.035000 0.000000 0.000000
0.040000 0.000000 0.000000
0.045000 0.000000 0.000000
0.050000 0.000000 0.000000
0.055000 0.000000 0.000000
0.060000 0.000000 0.000000
0.065000 0.000000 0.000000
0.070000 0.000000 0.000000
0.075000 0.000000 0.000000
0.080000 0.000000 0.000000
0.085000 0.000000 0.000000
0.090000 0.000000 0.000000
0.095000 0.000000 0.000000
0.100000 0.000000 0.000000
0.105000 0.000000 0.000000
0.110000 0.000000 0.000000
0.115000 0.000000 0.000000
0.120000 0.000000 0.000000
0.125000 0.000000 0.000000
0.130000 0.000000 0.000000
0.135000 0.000000 0.000000
0.140000 0.000000 0.000000
0.145000 0.000000 0.000000
0.150000 0.000000 0.000000
0.155000 0.000000 0.000000
0.160000 0.000000 0.000000
0.165000 0.000000 0.000000
0.170000 0.000000 0.000000
0.175000 0.000000 0.000000
0.180000 0.000000 0.000000
0.185000 0.000000 0.000000
0.190000 0.000000 0.000000
0.195000 0.000000 0.000000
0.200000 0.000000 0.000000
0.205000 0.000000 0.000000
0.210000 0.000000 0.000000
0.215000 0.000000 0.000000
0.220000 0.000000 0.000000
0.225000 0.000000 0.000000
0.230000 0.000000 0.000000
0.235000 0.000000 0.000000
0.240000 0.000000 0.000000
0.245000 0.000000 0.000000
0.250000 0.000000 0.000000
0.255000 0.000000 0.000000
0.260000 0.000000 0.000000
0.265000 0.000000 0.000000
0.270000 0.000000 0.000000
0.275000 0.000000 0.000000
0.280000 0.000000 0.000000
0.285000 0.000000 0.000000
0.290000 0.000000 0.000000
0.295000 0.000000 0.000000
0.300000 0.000000 0.000000
0.305000 0.000000 0.000000
0.310000 0.000000 0.000000
0.315000 0.000000 0.000000
0.320000 0.000000 0.000000
0.325000 0.000000 0.000000
0.330000 0.000000 0.000000
0.335000 0.000000 0.000000
0.340000 0.000000 0.000000
0.345000 0.000000 0.000000
0.350000 0.000000 0.000000
0.355000 0.000000 0.000000
0.360000 0.000000 0.000000
0.365000 0.000000 0.000000
0.370000 0.000000 0.000000
0.375000 0.000000 0.000000
0.380000 0.000000 0.000000
0.385000 0.000000 0.000000
0.390000 0.000000 0.000000
0.395000 0.000000 0.000000
0.400000 0.000000 0.000000
0.405000 0.000000 0.000000
0.410000 0.000000 0.000000
0.415000 0.000000 0.000000
0.420000 0.000000 0.000000
0.425000 0.000000 0.000000
0.430000 0.000000 0.000000
0.435000 0.000000 0.000000
0.440000 0.000000 0.000000
0.445000 0.000000 0.000000
0.450000 0.000000 0.000000
0.455000 0.000000 0.000000
0.460000 0.000000 0.000000
0.465000 0.000000 0.000000
0.470000 0.000000 0.000000
0.475000 0.000000 0.000000
0.480000 0.000000 0.000000
0.485000 0.000000 0.000000
0.490000 0.000000 0.000000
0.495000 0.000000 0.000000
0.500000 0.000000 0.000000
0.505000 0.000000 0.000000
0.510000 0.000000 0.000000
0.515000 0.000000 0.000000
0.520000 0.000000 0.000000
0.525000 0.000000 0.000000
0.530000 0.000000 0.000000
0.535000 0.000000 0.000000
0.540000 0.000000 0.000000
0.545000 0.000000 0.000000
0.550000 0.000000 0.000000
0.555000 0.000000 0.000000
0.560000 0.000000 0.000000
0.565000 0.000000 0.000000
0.570000 0.000000 0.000000
0.575000 0.000000 0.000000
0.580000 0.000000 0.000000
0.585000 0.000000 0.000000
0.590000 0.000000 0.000000
0.595000 0.000000 0.000000
0.600000 0.005000 0.000000
0.600000 0.010000 0.000000
0.600000 0.015000 0.000000
0.600000 0.020000 0.000000
0.600000 0.025000 0.000000
0.600000 0.030000 0.000000
0.600000 0.035000 0.000000
0.600000 0.040000 0.000000
0.600000 0.045000 0.000000
0.600000 0.050000 0.000000
0.600000 0.055000 0.000000
0.600000 0.060000 0.000000
0.600000 0.065000 0.000000
0.600000 0.070000 0.000000
0.600000 0.075000 0.000000
0.600000 0.080000 0.000000
0.600000 0.085000 0.000000
0.600000 0.090000 0.000000
0.600000 0.095000 0.000000
0.600000 0.100000 0.000000
0.600000 0.105000 0.000000
0.600000 0.110000 0.000000
0.600000 0.115000 0.000000
0.600000 0.120000 0.000000
0.600000 0.125000 0.000000
0.600000 0.130000 0.000000
0.600000 0.135000 0.000000
0.600000 0.140000 0.000000
0.600000 0.145000 0.000000
0.600000 0.150000 0.000000
0.600000 0.155000 0.000000
0.600000 0.160000 0.000000
0.600000 0.165000 0.000000
0.600000 0.170000 0.000000
0.600000 0.175000 0.000000
0.600000 0.180000 0.000000
0.600000 0.185000 0.000000
0.600000 0.190000 0.000000
0.600000 0.195000 0.000000
0.600000 0.200000 0.000000
0.600000 0.205000 0.000000
0.600000 0.210000 0.000000
0.600000 0.215000 0.000000
0.600000 0.220000 0.000000
0.600000 0.225000 0.000000
0.600000 0.230000 0.000000
0.600000 0.235000 0.000000
0.600000 0.240000 0.000000
0.600000 0.245000 0.000000
0.600000 0.250000 0.000000
0.600000 0.255000 0.000000
0.600000 0.260000 0.000000
0.600000 0.265000 0.000000
0.600000 0.270000 0.000000
0.600000 0.275000 0.000000
0.600000 0.280000 0.000000
0.600000 0.285000 0.000000
0.600000 0.290000 0.000000
0.600000 0.295000 0.000000
0.600000 0.300000 0.000000
0.600000 0.305000 0.000000
0.600000 0.310000 0.000000
0.600000 0.315000 0.000000
0.600000 0.320000 0.000000
0.600000 0.325000 0.000000
0.600000 0.330000 0.000000
0.600000 0.335000 0.000000
0.600000 0.340000 0.000000
0.600000 0.345000 0.000000
0.600000 0.350000 0.000000
0.600000 0.355000 0.000000
0.600000 0.360000 0.000000
0.600000 0.365000 0.000000
0.600000 0.370000 0.000000
0.600000 0.375000 0.000000
0.600000 0.380000 0.000000
0.600000 0.385000 0.000000
0.600000 0.390000 0.000000
0.600000 0.395000 0.000000
0.600000 0.400000 0.000000
0.600000 0.405000 0.000000
0.595000 0.410000 0.000000
0.590000 0.410000 0.000000
0.585000 0.410000 0.000000
0.580000 0.410000 0.000000
0.575000 0.410000 0.000000
0.570000 0.410000 0.000000
0.565000 0.410000 0.000000
0.560000 0.410000 0.000000
0.555000 0.410000 0.000000
0.550000 0.410000 0.000000
0.545000 0.410000 0.000000
0.540000 0.410000 0.000000
0.535000 0.410000 0.000000
0.530000 0.410000 0.000000
0.525000 0.410000 0.000000
0.520000 0.410000 0.000000
0.515000 0.410000 0.000000
0.510000 0.410000 0.000000
0.505000 0.410000 0.000000
0.500000 0.410000 0.000000
0.495000 0.410000 0.000000
0.490000 0.410000 0.000000
0.485000 0.410000 0.000000
0.480000 0.410000 0.000000
0.475000 0.410000 0.000000
0.470000 0.410000 0.000000
0.465000 0.410000 0.000000
0.460000 0.410000 0.000000
0.455000 0.410000 0.000000
0.450000 0.410000 0.000000
0.445000 0.410000 0.000000
0.440000 0.410000 0.000000
0.435000 0.410000 0.000000
0.430000 0.410000 0.000000
0.425000 0.410000 0.000000
0.420000 0.410000 0.000000
0.415000 0.410000 0.000000
0.410000 0.410000 0.000000
0.405000 0.410000 0.000000
0.400000 0.410000 0.000000
0.395000 0.410000 0.000000
0.390000 0.410000 0.000000
0.385000 0.410000 0.000000
0.380000 0.410000 0.000000
0.375000 0.410000 0.000000
0.370000 0.410000 0.000000
0.365000 0.410000 0.000000
0.360000 0.410000 0.000000
0.355000 0.410000 0.000000
0.350000 0.410000 0.000000
0.345000 0.410000 0.000000
0.340000 0.410000 0.000000
0.335000 0.410000 0.000000
0.330000 0.410000 0.000000
0.325000 0.410000 0.000000
0.320000 0.410000 0.000000
0.315000 0.410000 0.000000
0.310000 0.410000 0.000000
0.305000 0.410000 0.000000
0.300000 0.410000 0.000000
0.295000 0.410000 0.000000
0.290000 0.410000 0.000000
0.285000 0.410000 0.000000
0.280000 0.410000 0.000000
0.275000 0.410000 0.000000
0.270000 0.410000 0.000000
0.265000 0.410000 0.000000
0.260000 0.410000 0.000000
0.255000 0.410000 0.000000
0.250000 0.410000 0.000000
0.245000 0.410000 0.000000
0.240000 0.410000 0.000000
0.235000 0.410000 0.000000
0.230000 0.410000 0.000000
0.225000 0.410000 0.000000
0.220000 0.410000 0.000000
0.215000 0.410000 0.000000
0.210000 0.410000 0.000000
0.205000 0.410000 0.000000
0.200000 0.410000 0.000000
0.195000 0.410000 0.000000
0.190000 0.410000 0.000000
0.185000 0.410000 0.000000
0.180000 0.410000 0.000000
0.175000 0.410000 0.000000
0.170000 0.410000 0.000000
0.165000 0.410000 0.000000
0.160000 0.410000 0.000000
0.155000 0.410000 0.000000
0.150000 0.410000 0.000000
0.145000 0.410000 0.000000
0.140000 0.410000 0.000000
0.135000 0.410000 0.000000
0.130000 0.410000 0.000000
0.125000 0.410000 0.000000
0.120000 0.410000 0.000000
0.115000 0.410000 0.000000
0.110000 0.410000 0.000000
0.105000 0.410000 0.000000
0.100000 0.410000 0.000000
0.095000 0.410000 0.000000
0.090000 0.410000 0.000000
0.085000 0.410000 0.000000
0.080000 0.410000 0.000000
0.075000 0.410000 0.000000
0.070000 0.410000 0.000000
0.065000 0.410000 0.000000
0.060000 0.410000 0.000000
0.055000 0.410000 0.000000
0.050000 0.410000 0.000000
0.045000 0.410000 0.000000
0.040000 0.410000 0.000000
0.035000 0.410000 0.000000
0.030000 0.410000 0.000000
0.025000 0.410000 0.000000
0.020000 0.410000 0.000000
0.015000 0.410000 0.000000
0.010000 0.410000 0.000000
0.005000 0.410000 0.000000
0.000000 0.405000 0.000000
0.000000 0.400000 0.000000
0.000000 0.395000 0.000000
0.000000 0.390000 0.000000
0.000000 0.385000 0.000000
0.000000 0.380000 0.000000
0.000000 0.375000 0.000000
0.000000 0.370000 0.000000
0.000000 0.365000 0.000000
0.000000 0.360000 0.000000
0.000000 0.355000 0.000000
0.000000 0.350000 0.000000
0.000000 0.345000 0.000000
0.000000 0.340000 0.000000
0.000000 0.335000 0.000000
0.000000 0.330000 0.000000
0.000000 0.325000 0.000000
0.000000 0.320000 0.000000
0.000000 0.315000 0.000000
0.000000 0.310000 0.000000
0.000000 0.305000 0.000000
0.000000 0.300000 0.000000
0.000000 0.295000 0.000000
0.000000 0.290000 0.000000
0.000000 0.285000 0.000000
0.000000 0.280000 0.000000
0.000000 0.275000 0.000000
0.000000 0.270000 0.000000
0.000000 0.265000 0.000000
0.000000 0.260000 0.000000
0.000000 0.255000 0.000000
0.000000 0.250000 0.000000
0.000000 0.245000 0.000000
0.000000 0.240000 0.000000
0.000000 0.235000 0.000000
0.000000 0.230000 0.000000
0.000000 0.225000 0.000000
0.000000 0.220000 0.000000
0.000000 0.215000 0.000000
0.000000 0.210000 0.000000
0.000000 0.205000 0.000000
[...]
POINT_DATA 14959
VECTORS velocity float
0.000000 0.000000 0.000000
0.000000 0.000000 0.000000
0.000000 0.000000 0.000000
0.000000 0.000000 0.000000
0.000000 0.000000 0.000000
0.000000 0.000000 0.000000
0.000000 0.000000 0.000000
0.000000 0.000000 0.000000
0.000000 0.000000 0.000000
0.000000 0.000000 0.000000
0.000000 0.000000 0.000000
0.000000 0.000000 0.000000
0.000000 0.000000 0.000000
0.000000 0.000000 0.000000
0.000000 0.000000 0.000000
0.000000 0.000000 0.000000
0.000000 0.000000 0.000000
0.000000 0.000000 0.000000
0.000000 0.000000 0.000000
0.000000 0.000000 0.000000
0.000000 0.000000 0.000000
0.000000 0.000000 0.000000
0.000000 0.000000 0.000000
0.000000 0.000000 0.000000
0.000000 0.000000 0.000000
0.000000 0.000000 0.000000
0.000000 0.000000 0.000000
0.000000 0.000000 0.000000
0.000000 0.000000 0.000000
0.000000 0.000000 0.000000
0.000000 0.000000 0.000000
0.000000 0.000000 0.000000
0.000000 0.000000 0.000000
0.000000 0.000000 0.000000
0.000000 0.000000 0.000000
0.000000 0.000000 0.000000
0.000000 0.000000 0.000000
0.000000 0.000000 0.000000
0.000000 0.000000 0.000000
0.000000 0.000000 0.000000
0.000000 0.000000 0.000000
0.000000 0.000000 0.000000
0.000000 0.000000 0.000000
0.000000 0.000000 0.000000
0.000000 0.000000 0.000000
0.000000 0.000000 0.000000
0.000000 0.000000 0.000000
0.000000 0.000000 0.000000
0.000000 0.000000 0.000000
0.000000 0.000000 0.000000
0.000000 0.000000 0.000000
0.000000 0.000000 0.000000
0.000000 0.000000 0.000000
0.000000 0.000000 0.000000
0.000000 0.000000 0.000000
0.000000 0.000000 0.000000
0.000000 0.000000 0.000000
0.000000 0.000000 0.000000
0.000000 0.000000 0.000000
0.000000 0.000000 0.000000
0.000000 0.000000 0.000000
0.000000 0.000000 0.000000
0.000000 0.000000 0.000000
0.000000 0.000000 0.000000
0.000000 0.000000 0.000000
0.000000 0.000000 0.000000
0.000000 0.000000 0.000000
0.000000 0.000000 0.000000
0.000000 0.000000 0.000000
0.000000 0.000000 0.000000
0.000000 0.000000 0.000000
0.000000 0.000000 0.000000
0.000000 0.000000 0.000000
0.000000 0.000000 0.000000
0.000000 0.000000 0.000000
0.000000 0.000000 0.000000
0.000000 0.000000 0.000000
0.000000 0.000000 0.000000
0.000000 0.000000 0.000000
0.000000 0.000000 0.000000
0.000000 0.000000 0.000000
0.000000 0.000000 0.000000
0.000000 0.000000 0.000000
0.000000 0.000000 0.000000
0.000000 0.000000 0.000000
0.000000 0.000000 0.000000
0.000000 0.000000 0.000000
0.000000 0.000000 0.000000
0.000000 0.000000 0.000000
0.000000 0.000000 0.000000
0.000000 0.000000 0.000000
0.000000 0.000000 0.000000
0.000000 0.000000 0.000000
0.000000 0.000000 0.000000
0.000000 0.000000 0.000000
0.000000 0.000000 0.000000
0.000000 0.000000 0.000000
0.000000 0.000000 0.000000
0.000000 0.000000 0.000000
0.000000 0.000000 0.000000
0.000000 0.000000 0.000000
0.000000 0.000000 0.000000
0.000000 0.000000 0.000000
0.000000 0.000000 0.000000
0.000000 0.000000 0.000000
0.000000 0.000000 0.000000
0.000000 0.000000 0.000000
0.000000 0.000000 0.000000
0.000000 0.000000 0.000000
0.000000 0.000000 0.000000
0.000000 0.000000 0.000000
0.000000 0.000000 0.000000
0.000000 0.000000 0.000000
0.000000 0.000000 0.000000
0.000000 0.000000 0.000000
0.000000 0.000000 0.000000
0.000000 0.000000 0.000000
0.000000 0.000000 0.000000
0.000000 0.000000 0.000000
0.000000 0.000000 0.000000
0.000000 0.000000 0.000000
0.000000 0.000000 0.000000
0.000000 0.000000 0.000000
0.000000 0.000000 0.000000
0.000000 0.000000 0.000000
0.079249 -0.003288 0.000000
0.181566 -0.010219 0.000000
0.291212 -0.019669 0.000000
0.399903 -0.029975 0.000000
0.503945 -0.040770 0.000000
0.600406 -0.052128 0.000000
0.686279 -0.064491 0.000000
0.758390 -0.078331 0.000000
0.813805 -0.093925 0.000000
0.850345 -0.111231 0.000000
0.867068 -0.129938 0.000000
0.864946 -0.149636 0.000000
0.847497 -0.170049 0.000000
0.820802 -0.191242 0.000000
0.792325 -0.213664 0.000000
0.768704 -0.238012 0.000000
0.753636 -0.264925 0.000000
0.747185 -0.294723 0.000000
0.746890 -0.327341 0.000000
0.749758 -0.362470 0.000000
0.753790 -0.399767 0.000000
0.758405 -0.438980 0.000000
0.764017 -0.479949 0.000000
0.771444 -0.522538 0.000000
0.781528 -0.566569 0.000000
0.794984 -0.611800 0.000000
0.812377 -0.657915 0.000000
0.834117 -0.704534 0.000000
0.860461 -0.751227 0.000000
0.891509 -0.797523 0.000000
0.927208 -0.842936 0.000000
0.967350 -0.886970 0.000000
1.011593 -0.929145 0.000000
1.059468 -0.968994 0.000000
1.110408 -1.006082 0.000000
1.163762 -1.039994 0.000000
1.218818 -1.070346 0.000000
1.274816 -1.096756 0.000000
1.330966 -1.118862 0.000000
1.386453 -1.136295 0.000000
1.440445 -1.148696 0.000000
1.492099 -1.155704 0.000000
1.540570 -1.156996 0.000000
1.585027 -1.152282 0.000000
1.624676 -1.141370 0.000000
1.658784 -1.124179 0.000000
1.686725 -1.100795 0.000000
1.708004 -1.071476 0.000000
1.722303 -1.036678 0.000000
1.729491 -0.997020 0.000000
1.729627 -0.953256 0.000000
1.722933 -0.906202 0.000000
1.709754 -0.856680 0.000000
1.690505 -0.805451 0.000000
1.665621 -0.753185 0.000000
1.635521 -0.700443 0.000000
1.600591 -0.647692 0.000000
1.561188 -0.595333 0.000000
1.517653 -0.543730 0.000000
1.470339 -0.493242 0.000000
1.419626 -0.444234 0.000000
1.365934 -0.397079 0.000000
1.309715 -0.352148 0.000000
1.251440 -0.309792 0.000000
1.191574 -0.270319 0.000000
1.130537 -0.233974 0.000000
1.068683 -0.200929 0.000000
1.006265 -0.171273 0.000000
0.943420 -0.145009 0.000000
0.880162 -0.122054 0.000000
0.816391 -0.102245 0.000000
0.751922 -0.085338 0.000000
0.686541 -0.071009 0.000000
0.620088 -0.058861 0.000000
0.552558 -0.048435 0.000000
0.484166 -0.039235 0.000000
0.415314 -0.030797 0.000000
0.346264 -0.022763 0.000000
0.276283 -0.015072 0.000000
0.202570 -0.007931 0.000000
0.116245 -0.002712 0.000000
0.000000 0.000000 0.000000
0.000000 0.000000 0.000000
0.000000 0.000000 0.000000
0.000000 0.000000 0.000000
0.000000 0.000000 0.000000
0.000000 0.000000 0.000000
0.000000 0.000000 0.000000
0.000000 0.000000 0.000000
0.000000 0.000000 0.000000
0.000000 0.000000 0.000000
0.000000 0.000000 0.000000
0.000000 0.000000 0.000000
0.000000 0.000000 0.000000
0.000000 0.000000 0.000000
0.000000 0.000000 0.000000
0.000000 0.000000 0.000000
0.000000 0.000000 0.000000
0.000000 0.000000 0.000000
0.000000 0.000000 0.000000
0.000000 0.000000 0.000000
0.000000 0.000000 0.000000
0.000000 0.000000 0.000000
0.000000 0.000000 0.000000
0.000000 0.000000 0.000000
0.000000 0.000000 0.000000
0.000000 0.000000 0.000000
0.000000 0.000000 0.000000
0.000000 0.000000 0.000000
0.000000 0.000000 0.000000
0.000000 0.000000 0.000000
0.000000 0.000000 0.000000
0.000000 0.000000 0.000000
0.000000 0.000000 0.000000
0.000000 0.000000 0.000000
0.000000 0.000000 0.000000
0.000000 0.000000 0.000000
0.000000 0.000000 0.000000
0.000000 0.000000 0.000000
0.000000 0.000000 0.000000
0.000000 0.000000 0.000000
0.000000 0.000000 0.000000
0.000000 0.000000 0.000000
0.000000 0.000000 0.000000
0.000000 0.000000 0.000000
0.000000 0.000000 0.000000
0.000000 0.000000 0.000000
0.000000 0.000000 0.000000
0.000000 0.000000 0.000000
0.000000 0.000000 0.000000
0.000000 0.000000 0.000000
0.000000 0.000000 0.000000
0.000000 0.000000 0.000000
0.000000 0.000000 0.000000
0.000000 0.000000 0.000000
0.000000 0.000000 0.000000
0.000000 0.000000 0.000000
0.000000 0.000000 0.000000
0.000000 0.000000 0.000000
0.000000 0.000000 0.000000
0.000000 0.000000 0.000000
0.000000 0.000000 0.000000
0.000000 0.000000 0.000000
0.000000 0.000000 0.000000
0.000000 0.000000 0.000000
0.000000 0.000000 0.000000
0.000000 0.000000 0.000000
0.000000 0.000000 0.000000
0.000000 0.000000 0.000000
0.000000 0.000000 0.000000
0.000000 0.000000 0.000000
0.000000 0.000000 0.000000
0.000000 0.000000 0.000000
0.000000 0.000000 0.000000
0.000000 0.000000 0.000000
0.000000 0.000000 0.000000
0.000000 0.000000 0.000000
0.000000 0.000000 0.000000
0.000000 0.000000 0.000000
0.000000 0.000000 0.000000
0.000000 0.000000 0.000000
0.000000 0.000000 0.000000
0.000000 0.000000 0.000000
0.000000 0.000000 0.000000
0.000000 0.000000 0.000000
0.000000 0.000000 0.000000
0.000000 0.000000 0.000000
0.000000 0.000000 0.000000
0.000000 0.000000 0.000000
0.000000 0.000000 0.000000
0.000000 0.000000 0.000000
0.000000 0.000000 0.000000
0.000000 0.000000 0.000000
0.000000 0.000000 0.000000
0.000000 0.000000 0.000000
0.000000 0.000000 0.000000
0.000000 0.000000 0.000000
0.000000 0.000000 0.000000
0.000000 0.000000 0.000000
0.000000 0.000000 0.000000
0.000000 0.000000 0.000000
0.000000 0.000000 0.000000
0.000000 0.000000 0.000000
0.000000 0.000000 0.000000
0.000000 0.000000 0.000000
0.000000 0.000000 0.000000
0.000000 0.000000 0.000000
0.000000 0.000000 0.000000
0.000000 0.000000 0.000000
0.000000 0.000000 0.000000
0.000000 0.000000 0.000000
0.000000 0.000000 0.000000
0.000000 0.000000 0.000000
0.000000 0.000000 0.000000
0.000000 0.000000 0.000000
0.000000 0.000000 0.000000
0.000000 0.000000 0.000000
0.000000 0.000000 0.000000
0.000000 0.000000 0.000000
0.000000 0.000000 0.000000
0.072278 0.000000 0.000000
0.142772 0.000000 0.000000
0.211481 0.000000 0.000000
0.278406 0.000000 0.000000
0.343546 0.000000 0.000000
0.406901 0.000000 0.000000
0.468471 0.000000 0.000000
0.528257 0.000000 0.000000
0.586258 0.000000 0.000000
0.642475 0.000000 0.000000
0.696907 0.000000 0.000000
0.749554 0.000000 0.000000
0.800416 0.000000 0.000000
0.849494 0.000000 0.000000
0.896788 0.000000 0.000000
0.942296 0.000000 0.000000
0.986020 0.000000 0.000000
1.027960 0.000000 0.000000
1.068114 0.000000 0.000000
1.106484 0.000000 0.000000
1.143070 0.000000 0.000000
1.177870 0.000000 0.000000
1.210886 0.000000 0.000000
1.242118 0.000000 0.000000
1.271565 0.000000 0.000000
1.299227 0.000000 0.000000
1.325104 0.000000 0.000000
1.349197 0.000000 0.000000
1.371505 0.000000 0.000000
1.392029 0.000000 0.000000
1.410767 0.000000 0.000000
1.427722 0.000000 0.000000
1.442891 0.000000 0.000000
1.456276 0.000000 0.000000
1.467876 0.000000 0.000000
1.477692 0.000000 0.000000
1.485723 0.000000 0.000000
1.491969 0.000000 0.000000
1.496431 0.000000 0.000000
1.499108 0.000000 0.000000
1.500000 0.000000 0.000000
1.499108 0.000000 0.000000
1.496431 0.000000 0.000000
1.491969 0.000000 0.000000
1.485723 0.000000 0.000000
1.477692 0.000000 0.000000
1.467876 0.000000 0.000000
1.456276 0.000000 0.000000
1.442891 0.000000 0.000000
1.427722 0.000000 0.000000
1.410767 0.000000 0.000000
1.392029 0.000000 0.000000
1.371505 0.000000 0.000000
1.349197 0.000000 0.000000
1.325104 0.000000 0.000000
1.299227 0.000000 0.000000
1.271565 0.000000 0.000000
1.242118 0.000000 0.000000
1.210886 0.000000 0.000000
1.177870 0.000000 0.000000
1.143070 0.000000 0.000000
1.106484 0.000000 0.000000
1.068114 0.000000 0.000000
1.027960 0.000000 0.000000
0.986020 0.000000 0.000000
0.942296 0.000000 0.000000
0.896788 0.000000 0.000000
0.849494 0.000000 0.000000
0.800416 0.000000 0.000000
0.749554 0.000000 0.000000
0.696907 0.000000 0.000000
0.642475 0.000000 0.000000
0.586258 0.000000 0.000000
0.528257 0.000000 0.000000
0.468471 0.000000 0.000000
0.406901 0.000000 0.000000
0.343546 0.000000 0.000000
0.278406 0.000000 0.000000
0.211481 0.000000 0.000000
0.142772 0.000000 0.000000
0.072278 0.000000 0.000000
0.000000 0.000000 0.000000
0.000000 0.000000 0.000000
0.000000 0.000000 0.000000
0.000000 0.000000 0.000000
0.000000 0.000000 0.000000
0.000000 0.000000 0.000000
0.000000 0.000000 0.000000
0.000000 0.000000 0.000000
0.000000 0.000000 0.000000
0.000000 0.000000 0.000000
0.000000 0.000000 0.000000
0.000000 0.000000 0.000000
0.000000 0.000000 0.000000
0.000000 0.000000 0.000000
0.000000 0.000000 0.000000
0.000000 0.000000 0.000000
0.000000 0.000000 0.000000
0.000000 0.000000 0.000000
0.000000 0.000000 0.000000
0.000000 0.000000 0.000000
0.000000 0.000000 0.000000
0.000000 0.000000 0.000000
0.000000 0.000000 0.000000
0.000000 0.000000 0.000000
0.000000 0.000000 0.000000
0.000000 0.000000 0.000000
0.000000 0.000000 0.000000
0.000000 0.000000 0.000000
0.000000 0.000000 0.000000
0.000000 0.000000 0.000000
0.000000 0.000000 0.000000
0.000000 0.000000 0.000000
0.000000 0.000000 0.000000
0.000000 0.000000 0.000000
0.000000 0.000000 0.000000
0.000000 0.000000 0.000000
0.000000 0.000000 0.000000
0.000000 0.000000 0.000000
0.000000 0.000000 0.000000
0.000000 0.000000 0.000000
0.000000 0.000000 0.000000
0.000000 0.000000 0.000000
0.000000 0.000000 0.000000
0.000000 0.000000 0.000000
0.000000 0.000000 0.000000
0.000000 0.000000 0.000000
0.000000 0.000000 0.000000
0.000000 0.000000 0.000000
0.000000 0.000000 0.000000
0.000000 0.000000 0.000000
0.000000 0.000000 0.000000
0.000000 0.000000 0.000000
0.000000 0.000000 0.000000
0.000000 0.000000 0.000000
0.000000 0.000000 0.000000
0.000000 0.000000 0.000000
0.000000 0.000000 0.000000
0.000000 0.000000 0.000000
0.000000 0.000000 0.000000
0.000000 0.000000 0.000000
0.000000 0.000000 0.000000
0.000000 0.000000 0.000000
0.000000 0.000000 0.000000
0.000000 0.000000 0.000000
0.000000 0.000000 0.000000
0.000000 0.000000 0.000000
0.000000 0.000000 0.000000
0.000000 0.000000 0.000000
0.000000 0.000000 0.000000
0.000000 0.000000 0.000000
0.000000 0.000000 0.000000
0.000000 0.000000 0.000000
0.000000 0.000000 0.000000
0.000000 0.000000 0.000000
0.000000 0.000000 0.000000
0.000000 0.000000 0.000000
0.000000 0.000000 0.000000
0.000000 0.000000 0.000000
0.000000 0.000000 0.000000
0.000000 0.000000 0.000000
0.000000 0.000000 0.000000
0.000000 0.000000 0.000000
0.000000 0.000000 0.000000
0.000000 0.000000 0.000000
0.000000 0.000000 0.000000
0.000000 0.000000 0.000000
0.000000 0.000000 0.000000
0.000000 0.000000 0.000000
0.000000 0.000000 0.000000
0.000000 0.000000 0.000000
0.000000 0.000000 0.000000
0.000000 0.000000 0.000000
0.000000 0.000000 0.000000
0.000000 0.000000 0.000000
0.000000 0.000000 0.000000
0.000000 0.000000 0.000000
0.000000 0.000000 0.000000
0.000000 0.000000 0.000000
0.000000 0.000000 0.000000
0.000000 0.000000 0.000000
0.000000 0.000000 0.000000
0.000000 0.000000 0.000000
0.000000 0.000000 0.000000
0.000000 0.000000 0.000000
0.000000 0.000000 0.000000
0.000000 0.000000 0.000000
0.000000 0.000000 0.000000
0.000000 0.000000 0.000000
0.000000 0.000000 0.000000
0.000000 0.000000 0.000000
0.000000 0.000000 0.000000
0.000000 0.000000 0.000000
0.000000 0.000000 0.000000
0.000000 0.000000 0.000000
0.000000 0.000000 0.000000
0.000000 0.000000 0.000000
0.000000 0.000000 0.000000
0.000000 0.000000 0.000000
0.000000 0.000000 0.000000
0.000000 0.000000 0.000000
0.000000 0.000000 0.000000
0.000000 0.000000 0.000000
0.000000 0.000000 0.000000
0.000000 0.000000 0.000000
0.000000 0.000000 0.000000
0.000000 0.000000 0.000000
0.000000 0.000000 0.000000
0.677762 -0.002067 0.000000
1.107635 -0.035065 0.000000
1.395898 -0.117796 0.000000
1.626100 -0.230836 0.000000
1.621268 -0.220683 0.000000
1.381050 -0.157944 0.000000
1.019321 -0.040334 0.000000
0.705748 0.024805 0.000000
0.457241 0.008440 0.000000
0.000000 0.000000 0.000000
0.000000 0.000000 0.000000
0.000000 0.000000 0.000000
0.000000 0.000000 0.000000
0.000000 0.000000 0.000000
0.000000 0.000000 0.000000
0.000000 0.000000 0.000000
0.000000 0.000000 0.000000
0.000000 0.000000 0.000000
0.000000 0.000000 0.000000
0.000000 0.000000 0.000000
0.000000 0.000000 0.000000
0.000000 0.000000 0.000000
0.000000 0.000000 0.000000
0.000000 0.000000 0.000000
0.000000 0.000000 0.000000
0.000000 0.000000 0.000000
0.000000 0.000000 0.000000
0.000000 0.000000 0.000000
0.000000 0.000000 0.000000
0.000000 0.000000 0.000000
0.000000 0.000000 0.000000
0.000000 0.000000 0.000000
0.000000 0.000000 0.000000
0.000000 0.000000 0.000000
0.000000 0.000000 0.000000
0.000000 0.000000 0.000000
0.000000 0.000000 0.000000
0.000000 0.000000 0.000000
0.000000 0.000000 0.000000
0.000000 0.000000 0.000000
0.000000 0.000000 0.000000
0.000000 0.000000 0.000000
0.000000 0.000000 0.000000
0.000000 0.000000 0.000000
0.000000 0.000000 0.000000
0.000000 0.000000 0.000000
0.000000 0.000000 0.000000
0.000000 0.000000 0.000000
0.000000 0.000000 0.000000
0.000000 0.000000 0.000000
0.000000 0.000000 0.000000
0.000000 0.000000 0.000000
0.000000 0.000000 0.000000
0.000000 0.000000 0.000000
0.000000 0.000000 0.000000
0.000000 0.000000 0.000000
0.000000 0.000000 0.000000
0.000000 0.000000 0.000000
0.000000 0.000000 0.000000
0.000000 0.000000 0.000000
0.000000 0.000000 0.000000
0.000000 0.000000 0.000000
0.000000 0.000000 0.000000
0.000000 0.000000 0.000000
0.000000 0.000000 0.000000
0.000000 0.000000 0.000000
0.000000 0.000000 0.000000
0.000000 0.000000 0.000000
0.000000 0.000000 0.000000
0.000000 0.000000 0.000000
0.000000 0.000000 0.000000
0.000000 0.000000 0.000000
0.000000 0.000000 0.000000
0.000000 0.000000 0.000000
0.000000 0.000000 0.000000
0.000000 0.000000 0.000000
0.000000 0.000000 0.000000
0.000000 0.000000 0.000000
0.000000 0.000000 0.000000
0.000000 0.000000 0.000000
0.000000 0.000000 0.000000
0.000000 0.000000 0.000000
0.000000 0.000000 0.000000
0.000000 0.000000 0.000000
0.000000 0.000000 0.000000
0.000000 0.000000 0.000000
0.000000 0.000000 0.000000
0.000000 0.000000 0.000000
0.000000 0.000000 0.000000
0.000000 0.000000 0.000000
0.000000 0.000000 0.000000
0.000000 0.000000 0.000000
0.000000 0.000000 0.000000
0.000000 0.000000 0.000000
0.000000 0.000000 0.000000
0.000000 0.000000 0.000000
0.000000 0.000000 0.000000
0.000000 0.000000 0.000000
0.000000 0.000000 0.000000
0.000000 0.000000 0.000000
0.000000 0.000000 0.000000
0.000000 0.000000 0.000000
0.000000 0.000000 0.000000
0.000000 0.000000 0.000000
0.000000 0.000000 0.000000
0.000000 0.000000 0.000000
0.000000 0.000000 0.000000
0.000000 0.000000 0.000000
0.000000 0.000000 0.000000
0.000000 0.000000 0.000000
0.000000 0.000000 0.000000
0.000000 0.000000 0.000000
0.000000 0.000000 0.000000
0.000000 0.000000 0.000000
0.000000 0.000000 0.000000
0.000000 0.000000 0.000000
0.000000 0.000000 0.000000
0.000000 0.000000 0.000000
0.000000 0.000000 0.000000
0.000000 0.000000 0.000000
0.000000 0.000000 0.000000
0.000000 0.000000 0.000000
0.000000 0.000000 0.000000
0.000000 0.000000 0.000000
0.000000 0.000000 0.000000
0.000000 0.000000 0.000000
0.000000 0.000000 0.000000
0.000000 0.000000 0.000000
0.000000 0.000000 0.000000
0.000000 0.000000 0.000000
0.000000 0.000000 0.000000
0.000000 0.000000 0.000000
0.000000 0.000000 0.000000
0.000000 0.000000 0.000000
0.000000 0.000000 0.000000
0.000000 0.000000 0.000000
0.072129 -0.000127 0.000000
0.142766 -0.000422 0.000000
0.211577 -0.000924 0.000000
0.278553 -0.001561 0.000000
0.343716 -0.002267 0.000000
0.407082 -0.003002 0.000000
0.468657 -0.003749 0.000000
0.528444 -0.004498 0.000000
0.586444 -0.005242 0.000000
0.642656 -0.005976 0.000000
0.697081 -0.006694 0.000000
0.749719 -0.007392 0.000000
0.800570 -0.008063 0.000000
0.849633 -0.008705 0.000000
0.896910 -0.009310 0.000000
0.942399 -0.009873 0.000000
0.986100 -0.010390 0.000000
1.028014 -0.010853 0.000000
1.068140 -0.011256 0.000000
1.106479 -0.011593 0.000000
1.143030 -0.011858 0.000000
1.177793 -0.012045 0.000000
1.210769 -0.012148 0.000000
1.241959 -0.012161 0.000000
1.271361 -0.012080 0.000000
1.298977 -0.011900 0.000000
1.324808 -0.011620 0.000000
1.348853 -0.011236 0.000000
1.371114 -0.010749 0.000000
1.391591 -0.010160 0.000000
1.410285 -0.009473 0.000000
1.427197 -0.008690 0.000000
1.442327 -0.007819 0.000000
1.455677 -0.006868 0.000000
1.467247 -0.005846 0.000000
1.477038 -0.004763 0.000000
1.485050 -0.003633 0.000000
1.491283 -0.002468 0.000000
1.495738 -0.001282 0.000000
1.498415 -0.000088 0.000000
1.499313 0.001099 0.000000
1.498433 0.002266 0.000000
1.495774 0.003400 0.000000
1.491336 0.004489 0.000000
1.485117 0.005523 0.000000
1.477118 0.006491 0.000000
1.467338 0.007386 0.000000
1.455776 0.008202 0.000000
1.442430 0.008933 0.000000
1.427302 0.009577 0.000000
1.410389 0.010132 0.000000
1.391691 0.010596 0.000000
1.371208 0.010972 0.000000
1.348939 0.011260 0.000000
1.324884 0.011464 0.000000
1.299043 0.011587 0.000000
1.271415 0.011633 0.000000
1.242000 0.011607 0.000000
1.210798 0.011513 0.000000
1.177810 0.011356 0.000000
1.143034 0.011141 0.000000
1.106471 0.010873 0.000000
1.068122 0.010557 0.000000
1.027985 0.010196 0.000000
0.986063 0.009796 0.000000