# vtk DataFile Version 3.0
CutFEM Results
ASCII
DATASET UNSTRUCTURED_GRID
POINTS 14959 float
0.000000 0.000000 0.000000
0.600000 0.000000 0.000000
0.600000 0.410000 0.000000
0.000000 0.410000 0.000000
2.200000 0.000000 0.000000
2.200000 0.410000 0.000000
0.005000 0.000000 0.000000
0.010000 0.000000 0.000000
0.015000 0.000000 0.000000
0.020000 0.000000 0.000000
0.025000 0.000000 0.000000
0.030000 0.000000 0.000000
0.035000 0.000000 0.000000
0.040000 0.000000 0.000000
0.045000 0.000000 0.000000
0.050000 0.000000 0.000000
0.055000 0.000000 0.000000
0.060000 0.000000 0.000000
0.065000 0.000000 0.000000
0.070000 0.000000 0.000000
0.075000 0.000000 0.000000
0.080000 0.000000 0.000000
0.085000 0.000000 0.000000
0.090000 0.000000 0.000000
0.095000 0.000000 0.000000
0.100000 0.000000 0.000000
0.105000 0.000000 0.000000
0.110000 0.000000 0.000000
0.115000 0.000000 0.000000
0.120000 0.000000 0.000000
0.125000 0.000000 0.000000
0.130000 0.000000 0.000000
0.135000 0.000000 0.000000
0.140000 0.000000 0.000000
0.145000 0.000000 0.000000
0.150000 0.000000 0.000000
0.155000 0.000000 0.000000
0.160000 0.000000 0.000000
0.165000 0.000000 0.000000
0.170000 0.000000 0.000000
0.175000 0.000000 0.000000
0.180000 0.000000 0.000000
0.185000 0.000000 0.000000
0.190000 0.000000 0.000000
0.195000 0.000000 0.000000
0.200000 0.000000 0.000000
0.205000 0.000000 0.000000
0.210000 0.000000 0.000000
0.215000 0.000000 0.000000
0.220000 0.000000 0.000000
0.225000 0.000000 0.000000
0.230000 0.000000 0.000000
0.235000 0.000000 0.000000
0.240000 0.000000 0.000000
0.245000 0.000000 0.000000
0.250000 0.000000 0.000000
0.255000 0.000000 0.000000
0.260000 0.000000 0.000000
0.265000 0.000000 0.000000
0.270000 0.000000 0.000000
0.275000 0.000000 0.000000
0.280000 0.000000 0.000000
0.285000 0.000000 0.000000
0.290000 0.000000 0.000000
0.295000 0.000000 0.000000
0.300000 0.000000 0.000000
0.305000 0.000000 0.000000
0.310000 0.000000 0.000000
0.315000 0.000000 0.000000
0.320000 0.000000 0.000000
0.325000 0.000000 0.000000
0.330000 0.000000 0.000000
0.335000 0.000000 0.000000
0.340000 0.000000 0.000000
0.345000 0.000000 0.000000
0.350000 0.000000 0.000000
0.355000 0.000000 0.000000
0.360000 0.000000 0.000000
0.365000 0.000000 0.000000
0.370000 0.000000 0.000000
0.375000 0.000000 0.000000
0.380000 0.000000 0.000000
0.385000 0.000000 0.000000
0.390000 0.000000 0.000000
0.395000 0.000000 0.000000
0.400000 0.000000 0.000000
0.405000 0.000000 0.000000
0.410000 0.000000 0.000000
0.415000 0.000000 0.000000
0.420000 0.000000 0.000000
0.425000 0.000000 0.000000
0.430000 0.000000 0.000000
0.435000 0.000000 0.000000
0.440000 0.000000 0.000000
0.445000 0.000000 0.000000
0.450000 0.000000 0.000000
0.455000 0.000000 0.000000
0.460000 0.000000 0.000000
0.465000 0.000000 0.000000
0.470000 0.000000 0.000000
0.475000 0.000000 0.000000
0.480000 0.000000 0.000000
0.485000 0.000000 0.000000
0.490000 0.000000 0.000000
0.495000 0.000000 0.000000
0.500000 0.000000 0.000000
0.505000 0.000000 0.000000
0.510000 0.000000 0.000000
0.515000 0.000000 0.000000
0.520000 0.000000 0.000000
0.525000 0.000000 0.000000
0.530000 0.000000 0.000000
0.535000 0.000000 0.000000
0.540000 0.000000 0.000000
0.545000 0.000000 0.000000
0.550000 0.000000 0.000000
0.555000 0.000000 0.000000
0.560000 0.000000 0.000000
0.565000 0.000000 0.000000
0.570000 0.000000 0.000000
0.575000 0.000000 0.000000
0.580000 0.000000 0.000000
0.585000 0.000000 0.000000
0.590000 0.000000 0.000000
0.595000 0.000000 0.000000
0.600000 0.005000 0.000000
0.600000 0.010000 0.000000
0.600000 0.015000 0.000000
0.600000 0.020000 0.000000
0.600000 0.025000 0.000000
0.600000 0.030000 0.000000
0.600000 0.035000 0.000000
0.600000 0.040000 0.000000
0.600000 0.045000 0.000000
0.600000 0.050000 0.000000
0.600000 0.055000 0.000000
0.600000 0.060000 0.000000
0.600000 0.065000 0.000000
0.600000 0.070000 0.000000
0.600000 0.075000 0.000000
0.600000 0.080000 0.000000
0.600000 0.085000 0.000000
0.600000 0.090000 0.000000
0.600000 0.095000 0.000000
0.600000 0.100000 0.000000
0.600000 0.105000 0.000000
0.600000 0.110000 0.000000
0.600000 0.115000 0.000000
0.600000 0.120000 0.000000
0.600000 0.125000 0.000000
0.600000 0.130000 0.000000
0.600000 0.135000 0.000000
0.600000 0.140000 0.000000
0.600000 0.145000 0.000000
0.600000 0.150000 0.000000
0.600000 0.155000 0.000000
0.600000 0.160000 0.000000
0.600000 0.165000 0.000000
0.600000 0.170000 0.000000
0.600000 0.175000 0.000000
0.600000 0.180000 0.000000
0.600000 0.185000 0.000000
0.600000 0.190000 0.000000
0.600000 0.195000 0.000000
0.600000 0.200000 0.000000
0.600000 0.205000 0.000000
0.600000 0.210000 0.000000
0.600000 0.215000 0.000000
0.600000 0.220000 0.000000
0.600000 0.225000 0.000000
0.600000 0.230000 0.000000
0.600000 0.235000 0.000000
0.600000 0.240000 0.000000
0.600000 0.245000 0.000000
0.600000 0.250000 0.000000
0.600000 0.255000 0.000000
0.600000 0.260000 0.000000
0.600000 0.265000 0.000000
0.600000 0.270000 0.000000
0.600000 0.275000 0.000000
0.600000 0.280000 0.000000
0.600000 0.285000 0.000000
0.600000 0.290000 0.000000
0.600000 0.295000 0.000000
0.600000 0.300000 0.000000
0.600000 0.305000 0.000000
0.600000 0.310000 0.000000
0.600000 0.315000 0.000000
0.600000 0.320000 0.000000
0.600000 0.325000 0.000000
0.600000 0.330000 0.000000
0.600000 0.335000 0.000000
0.600000 0.340000 0.000000
0.600000 0.345000 0.000000
0.600000 0.350000 0.000000
0.600000 0.355000 0.000000
0.600000 0.360000 0.000000
0.600000 0.365000 0.000000
0.600000 0.370000 0.000000
0.600000 0.375000 0.000000
0.600000 0.380000 0.000000
0.600000 0.385000 0.000000
0.600000 0.390000 0.000000
0.600000 0.395000 0.000000
0.600000 0.400000 0.000000
0.600000 0.405000 0.000000
0.595000 0.410000 0.000000
0.590000 0.410000 0.000000
0.585000 0.410000 0.000000
0.580000 0.410000 0.000000
0.575000 0.410000 0.000000
0.570000 0.410000 0.000000
0.565000 0.410000 0.000000
0.560000 0.410000 0.000000
0.555000 0.410000 0.000000
0.550000 0.410000 0.000000
0.545000 0.410000 0.000000
0.540000 0.410000 0.000000
0.535000 0.410000 0.000000
0.530000 0.410000 0.000000
0.525000 0.410000 0.000000
0.520000 0.410000 0.000000
0.515000 0.410000 0.000000
0.510000 0.410000 0.000000
0.505000 0.410000 0.000000
0.500000 0.410000 0.000000
0.495000 0.410000 0.000000
0.490000 0.410000 0.000000
0.485000 0.410000 0.000000
0.480000 0.410000 0.000000
0.475000 0.410000 0.000000
0.470000 0.410000 0.000000
0.465000 0.410000 0.000000
0.460000 0.410000 0.000000
0.455000 0.410000 0.000000
0.450000 0.410000 0.000000
0.445000 0.410000 0.000000
0.440000 0.410000 0.000000
0.435000 0.410000 0.000000
0.430000 0.410000 0.000000
0.425000 0.410000 0.000000
0.420000 0.410000 0.000000
0.415000 0.410000 0.000000
0.410000 0.410000 0.000000
0.405000 0.410000 0.000000
0.400000 0.410000 0.000000
0.395000 0.410000 0.000000
0.390000 0.410000 0.000000
0.385000 0.410000 0.000000
0.380000 0.410000 0.000000
0.375000 0.410000 0.000000
0.370000 0.410000 0.000000
0.365000 0.410000 0.000000
0.360000 0.410000 0.000000
0.355000 0.410000 0.000000
0.350000 0.410000 0.000000
0.345000 0.410000 0.000000
0.340000 0.410000 0.000000
0.335000 0.410000 0.000000
0.330000 0.410000 0.000000
0.325000 0.410000 0.000000
0.320000 0.410000 0.000000
0.315000 0.410000 0.000000
0.310000 0.410000 0.000000
0.305000 0.410000 0.000000
0.300000 0.410000 0.000000
0.295000 0.410000 0.000000
0.290000 0.410000 0.000000
0.285000 0.410000 0.000000
0.280000 0.410000 0.000000
0.275000 0.410000 0.000000
0.270000 0.410000 0.000000
0.265000 0.410000 0.000000
0.260000 0.410000 0.000000
0.255000 0.410000 0.000000
0.250000 0.410000 0.000000
0.245000 0.410000 0.000000
0.240000 0.410000 0.000000
0.235000 0.410000 0.000000
0.230000 0.410000 0.000000
0.225000 0.410000 0.000000
0.220000 0.410000 0.000000
0.215000 0.410000 0.000000
0.210000 0.410000 0.000000
0.205000 0.410000 0.000000
0.200000 0.410000 0.000000
0.195000 0.410000 0.000000
0.190000 0.410000 0.000000
0.185000 0.410000 0.000000
0.180000 0.410000 0.000000
0.175000 0.410000 0.000000
0.170000 0.410000 0.000000
0.165000 0.410000 0.000000
0.160000 0.410000 0.000000
0.155000 0.410000 0.000000
0.150000 0.410000 0.000000
0.145000 0.410000 0.000000
0.140000 0.410000 0.000000
0.135000 0.410000 0.000000
0.130000 0.410000 0.000000
0.125000 0.410000 0.000000
0.120000 0.410000 0.000000
0.115000 0.410000 0.000000
0.110000 0.410000 0.000000
0.105000 0.410000 0.000000
0.100000 0.410000 0.000000
0.095000 0.410000 0.000000
0.090000 0.410000 0.000000
0.085000 0.410000 0.000000
0.080000 0.410000 0.000000
0.075000 0.410000 0.000000
0.070000 0.410000 0.000000
0.065000 0.410000 0.000000
0.060000 0.410000 0.000000
0.055000 0.410000 0.000000
0.050000 0.410000 0.000000
0.045000 0.410000 0.000000
0.040000 0.410000 0.000000
0.035000 0.410000 0.000000
0.030000 0.410000 0.000000
0.025000 0.410000 0.000000
0.020000 0.410000 0.000000
0.015000 0.410000 0.000000
0.010000 0.410000 0.000000
0.005000 0.410000 0.000000
0.000000 0.405000 0.000000
0.000000 0.400000 0.000000
0.000000 0.395000 0.000000
0.000000 0.390000 0.000000
0.000000 0.385000 0.000000
0.000000 0.380000 0.000000
0.000000 0.375000 0.000000
0.000000 0.370000 0.000000
0.000000 0.365000 0.000000
0.000000 0.360000 0.000000
0.000000 0.355000 0.000000
0.000000 0.350000 0.000000
0.000000 0.345000 0.000000
0.000000 0.340000 0.000000
0.000000 0.335000 0.000000
0.000000 0.330000 0.000000
0.000000 0.325000 0.000000
0.000000 0.320000 0.000000
0.000000 0.315000 0.000000
0.000000 0.310000 0.000000
0.000000 0.305000 0.000000
0.000000 0.300000 0.000000
0.000000 0.295000 0.000000
0.000000 0.290000 0.000000
0.000000 0.285000 0.000000
0.000000 0.280000 0.000000
0.000000 0.275000 0.000000
0.000000 0.270000 0.000000
0.000000 0.265000 0.000000
0.000000 0.260000 0.000000
0.000000 0.255000 0.000000
0.000000 0.250000 0.000000
0.000000 0.245000 0.000000
0.000000 0.240000 0.000000
0.000000 0.235000 0.000000
0.000000 0.230000 0.000000
0.000000 0.225000 0.000000
0.000000 0.220000 0.000000
0.000000 0.215000 0.000000
0.000000 0.210000 0.000000
0.000000 0.205000 0.000000
[...]
POINT_DATA 14959
VECTORS velocity float
0.000000 0.000000 0.000000
0.000000 0.000000 0.000000
0.000000 0.000000 0.000000
0.000000 0.000000 0.000000
0.000000 0.000000 0.000000
0.000000 0.000000 0.000000
0.000000 0.000000 0.000000
0.000000 0.000000 0.000000
0.000000 0.000000 0.000000
0.000000 0.000000 0.000000
0.000000 0.000000 0.000000
0.000000 0.000000 0.000000
0.000000 0.000000 0.000000
0.000000 0.000000 0.000000
0.000000 0.000000 0.000000
0.000000 0.000000 0.000000
0.000000 0.000000 0.000000
0.000000 0.000000 0.000000
0.000000 0.000000 0.000000
0.000000 0.000000 0.000000
0.000000 0.000000 0.000000
0.000000 0.000000 0.000000
0.000000 0.000000 0.000000
0.000000 0.000000 0.000000
0.000000 0.000000 0.000000
0.000000 0.000000 0.000000
0.000000 0.000000 0.000000
0.000000 0.000000 0.000000
0.000000 0.000000 0.000000
0.000000 0.000000 0.000000
0.000000 0.000000 0.000000
0.000000 0.000000 0.000000
0.000000 0.000000 0.000000
0.000000 0.000000 0.000000
0.000000 0.000000 0.000000
0.000000 0.000000 0.000000
0.000000 0.000000 0.000000
0.000000 0.000000 0.000000
0.000000 0.000000 0.000000
0.000000 0.000000 0.000000
0.000000 0.000000 0.000000
0.000000 0.000000 0.000000
0.000000 0.000000 0.000000
0.000000 0.000000 0.000000
0.000000 0.000000 0.000000
0.000000 0.000000 0.000000
0.000000 0.000000 0.000000
0.000000 0.000000 0.000000
0.000000 0.000000 0.000000
0.000000 0.000000 0.000000
0.000000 0.000000 0.000000
0.000000 0.000000 0.000000
0.000000 0.000000 0.000000
0.000000 0.000000 0.000000
0.000000 0.000000 0.000000
0.000000 0.000000 0.000000
0.000000 0.000000 0.000000
0.000000 0.000000 0.000000
0.000000 0.000000 0.000000
0.000000 0.000000 0.000000
0.000000 0.000000 0.000000
0.000000 0.000000 0.000000
0.000000 0.000000 0.000000
0.000000 0.000000 0.000000
0.000000 0.000000 0.000000
0.000000 0.000000 0.000000
0.000000 0.000000 0.000000
0.000000 0.000000 0.000000
0.000000 0.000000 0.000000
0.000000 0.000000 0.000000
0.000000 0.000000 0.000000
0.000000 0.000000 0.000000
0.000000 0.000000 0.000000
0.000000 0.000000 0.000000
0.000000 0.000000 0.000000
0.000000 0.000000 0.000000
0.000000 0.000000 0.000000
0.000000 0.000000 0.000000
0.000000 0.000000 0.000000
0.000000 0.000000 0.000000
0.000000 0.000000 0.000000
0.000000 0.000000 0.000000
0.000000 0.000000 0.000000
0.000000 0.000000 0.000000
0.000000 0.000000 0.000000
0.000000 0.000000 0.000000
0.000000 0.000000 0.000000
0.000000 0.000000 0.000000
0.000000 0.000000 0.000000
0.000000 0.000000 0.000000
0.000000 0.000000 0.000000
0.000000 0.000000 0.000000
0.000000 0.000000 0.000000
0.000000 0.000000 0.000000
0.000000 0.000000 0.000000
0.000000 0.000000 0.000000
0.000000 0.000000 0.000000
0.000000 0.000000 0.000000
0.000000 0.000000 0.000000
0.000000 0.000000 0.000000
0.000000 0.000000 0.000000
0.000000 0.000000 0.000000
0.000000 0.000000 0.000000
0.000000 0.000000 0.000000
0.000000 0.000000 0.000000
0.000000 0.000000 0.000000
0.000000 0.000000 0.000000
0.000000 0.000000 0.000000
0.000000 0.000000 0.000000
0.000000 0.000000 0.000000
0.000000 0.000000 0.000000
0.000000 0.000000 0.000000
0.000000 0.000000 0.000000
0.000000 0.000000 0.000000
0.000000 0.000000 0.000000
0.000000 0.000000 0.000000
0.000000 0.000000 0.000000
0.000000 0.000000 0.000000
0.000000 0.000000 0.000000
0.000000 0.000000 0.000000
0.000000 0.000000 0.000000
0.000000 0.000000 0.000000
0.000000 0.000000 0.000000
0.000000 0.000000 0.000000
0.000000 0.000000 0.000000
0.152109 0.000542 0.000000
0.275295 0.002346 0.000000
0.376236 0.006608 0.000000
0.465588 0.013033 0.000000
0.548824 0.021491 0.000000
0.630096 0.031882 0.000000
0.711999 0.044312 0.000000
0.796086 0.058988 0.000000
0.883196 0.076160 0.000000
0.973565 0.096003 0.000000
1.066812 0.118483 0.000000
1.161882 0.143212 0.000000
1.257056 0.169370 0.000000
1.350119 0.195732 0.000000
1.438615 0.220798 0.000000
1.520054 0.242928 0.000000
1.591905 0.260371 0.000000
1.651433 0.271161 0.000000
1.695674 0.273029 0.000000
1.721940 0.263614 0.000000
1.728948 0.241126 0.000000
1.718054 0.205262 0.000000
1.693720 0.157839 0.000000
1.662579 0.102606 0.000000
1.631409 0.044187 0.000000
1.605109 -0.013292 0.000000
1.585731 -0.067167 0.000000
1.572826 -0.116396 0.000000
1.564540 -0.161111 0.000000
1.558663 -0.201974 0.000000
1.553247 -0.239714 0.000000
1.546798 -0.274878 0.000000
1.538236 -0.307797 0.000000
1.526793 -0.338590 0.000000
1.511923 -0.367225 0.000000
1.493255 -0.393551 0.000000
1.470563 -0.417350 0.000000
1.443754 -0.438353 0.000000
1.412866 -0.456288 0.000000
1.378062 -0.470887 0.000000
1.339627 -0.481923 0.000000
1.297961 -0.489210 0.000000
1.253561 -0.492628 0.000000
1.207012 -0.492110 0.000000
1.158967 -0.487664 0.000000
1.110123 -0.479348 0.000000
1.061206 -0.467289 0.000000
1.012952 -0.451656 0.000000
0.966082 -0.432673 0.000000
0.921285 -0.410600 0.000000
0.879200 -0.385743 0.000000
0.840394 -0.358434 0.000000
0.805348 -0.329040 0.000000
0.774441 -0.297938 0.000000
0.747940 -0.265523 0.000000
0.726002 -0.232180 0.000000
0.708678 -0.198287 0.000000
0.695920 -0.164201 0.000000
0.687597 -0.130270 0.000000
0.683495 -0.096846 0.000000
0.683295 -0.064330 0.000000
0.686532 -0.033207 0.000000
0.692535 -0.004075 0.000000
0.700367 0.022362 0.000000
0.708807 0.045352 0.000000
0.716392 0.064204 0.000000
0.721530 0.078408 0.000000
0.722642 0.087735 0.000000
0.718301 0.092290 0.000000
0.707291 0.092482 0.000000
0.688582 0.088947 0.000000
0.661230 0.082442 0.000000
0.624291 0.073753 0.000000
0.576848 0.063621 0.000000
0.518234 0.052708 0.000000
0.448452 0.041579 0.000000
0.368699 0.030740 0.000000
0.281917 0.020668 0.000000
0.193117 0.011931 0.000000
0.109444 0.005192 0.000000
0.041842 0.001353 0.000000
0.000000 0.000000 0.000000
0.000000 0.000000 0.000000
0.000000 0.000000 0.000000
0.000000 0.000000 0.000000
0.000000 0.000000 0.000000
0.000000 0.000000 0.000000
0.000000 0.000000 0.000000
0.000000 0.000000 0.000000
0.000000 0.000000 0.000000
0.000000 0.000000 0.000000
0.000000 0.000000 0.000000
0.000000 0.000000 0.000000
0.000000 0.000000 0.000000
0.000000 0.000000 0.000000
0.000000 0.000000 0.000000
0.000000 0.000000 0.000000
0.000000 0.000000 0.000000
0.000000 0.000000 0.000000
0.000000 0.000000 0.000000
0.000000 0.000000 0.000000
0.000000 0.000000 0.000000
0.000000 0.000000 0.000000
0.000000 0.000000 0.000000
0.000000 0.000000 0.000000
0.000000 0.000000 0.000000
0.000000 0.000000 0.000000
0.000000 0.000000 0.000000
0.000000 0.000000 0.000000
0.000000 0.000000 0.000000
0.000000 0.000000 0.000000
0.000000 0.000000 0.000000
0.000000 0.000000 0.000000
0.000000 0.000000 0.000000
0.000000 0.000000 0.000000
0.000000 0.000000 0.000000
0.000000 0.000000 0.000000
0.000000 0.000000 0.000000
0.000000 0.000000 0.000000
0.000000 0.000000 0.000000
0.000000 0.000000 0.000000
0.000000 0.000000 0.000000
0.000000 0.000000 0.000000
0.000000 0.000000 0.000000
0.000000 0.000000 0.000000
0.000000 0.000000 0.000000
0.000000 0.000000 0.000000
0.000000 0.000000 0.000000
0.000000 0.000000 0.000000
0.000000 0.000000 0.000000
0.000000 0.000000 0.000000
0.000000 0.000000 0.000000
0.000000 0.000000 0.000000
0.000000 0.000000 0.000000
0.000000 0.000000 0.000000
0.000000 0.000000 0.000000
0.000000 0.000000 0.000000
0.000000 0.000000 0.000000
0.000000 0.000000 0.000000
0.000000 0.000000 0.000000
0.000000 0.000000 0.000000
0.000000 0.000000 0.000000
0.000000 0.000000 0.000000
0.000000 0.000000 0.000000
0.000000 0.000000 0.000000
0.000000 0.000000 0.000000
0.000000 0.000000 0.000000
0.000000 0.000000 0.000000
0.000000 0.000000 0.000000
0.000000 0.000000 0.000000
0.000000 0.000000 0.000000
0.000000 0.000000 0.000000
0.000000 0.000000 0.000000
0.000000 0.000000 0.000000
0.000000 0.000000 0.000000
0.000000 0.000000 0.000000
0.000000 0.000000 0.000000
0.000000 0.000000 0.000000
0.000000 0.000000 0.000000
0.000000 0.000000 0.000000
0.000000 0.000000 0.000000
0.000000 0.000000 0.000000
0.000000 0.000000 0.000000
0.000000 0.000000 0.000000
0.000000 0.000000 0.000000
0.000000 0.000000 0.000000
0.000000 0.000000 0.000000
0.000000 0.000000 0.000000
0.000000 0.000000 0.000000
0.000000 0.000000 0.000000
0.000000 0.000000 0.000000
0.000000 0.000000 0.000000
0.000000 0.000000 0.000000
0.000000 0.000000 0.000000
0.000000 0.000000 0.000000
0.000000 0.000000 0.000000
0.000000 0.000000 0.000000
0.000000 0.000000 0.000000
0.000000 0.000000 0.000000
0.000000 0.000000 0.000000
0.000000 0.000000 0.000000
0.000000 0.000000 0.000000
0.000000 0.000000 0.000000
0.000000 0.000000 0.000000
0.000000 0.000000 0.000000
0.000000 0.000000 0.000000
0.000000 0.000000 0.000000
0.000000 0.000000 0.000000
0.000000 0.000000 0.000000
0.000000 0.000000 0.000000
0.000000 0.000000 0.000000
0.000000 0.000000 0.000000
0.000000 0.000000 0.000000
0.000000 0.000000 0.000000
0.000000 0.000000 0.000000
0.000000 0.000000 0.000000
0.000000 0.000000 0.000000
0.000000 0.000000 0.000000
0.000000 0.000000 0.000000
0.000000 0.000000 0.000000
0.072278 0.000000 0.000000
0.142772 0.000000 0.000000
0.211481 0.000000 0.000000
0.278406 0.000000 0.000000
0.343546 0.000000 0.000000
0.406901 0.000000 0.000000
0.468471 0.000000 0.000000
0.528257 0.000000 0.000000
0.586258 0.000000 0.000000
0.642475 0.000000 0.000000
0.696907 0.000000 0.000000
0.749554 0.000000 0.000000
0.800416 0.000000 0.000000
0.849494 0.000000 0.000000
0.896788 0.000000 0.000000
0.942296 0.000000 0.000000
0.986020 0.000000 0.000000
1.027960 0.000000 0.000000
1.068114 0.000000 0.000000
1.106484 0.000000 0.000000
1.143070 0.000000 0.000000
1.177870 0.000000 0.000000
1.210886 0.000000 0.000000
1.242118 0.000000 0.000000
1.271565 0.000000 0.000000
1.299227 0.000000 0.000000
1.325104 0.000000 0.000000
1.349197 0.000000 0.000000
1.371505 0.000000 0.000000
1.392029 0.000000 0.000000
1.410767 0.000000 0.000000
1.427722 0.000000 0.000000
1.442891 0.000000 0.000000
1.456276 0.000000 0.000000
1.467876 0.000000 0.000000
1.477692 0.000000 0.000000
1.485723 0.000000 0.000000
1.491969 0.000000 0.000000
1.496431 0.000000 0.000000
1.499108 0.000000 0.000000
1.500000 0.000000 0.000000
1.499108 0.000000 0.000000
1.496431 0.000000 0.000000
1.491969 0.000000 0.000000
1.485723 0.000000 0.000000
1.477692 0.000000 0.000000
1.467876 0.000000 0.000000
1.456276 0.000000 0.000000
1.442891 0.000000 0.000000
1.427722 0.000000 0.000000
1.410767 0.000000 0.000000
1.392029 0.000000 0.000000
1.371505 0.000000 0.000000
1.349197 0.000000 0.000000
1.325104 0.000000 0.000000
1.299227 0.000000 0.000000
1.271565 0.000000 0.000000
1.242118 0.000000 0.000000
1.210886 0.000000 0.000000
1.177870 0.000000 0.000000
1.143070 0.000000 0.000000
1.106484 0.000000 0.000000
1.068114 0.000000 0.000000
1.027960 0.000000 0.000000
0.986020 0.000000 0.000000
0.942296 0.000000 0.000000
0.896788 0.000000 0.000000
0.849494 0.000000 0.000000
0.800416 0.000000 0.000000
0.749554 0.000000 0.000000
0.696907 0.000000 0.000000
0.642475 0.000000 0.000000
0.586258 0.000000 0.000000
0.528257 0.000000 0.000000
0.468471 0.000000 0.000000
0.406901 0.000000 0.000000
0.343546 0.000000 0.000000
0.278406 0.000000 0.000000
0.211481 0.000000 0.000000
0.142772 0.000000 0.000000
0.072278 0.000000 0.000000
0.000000 0.000000 0.000000
0.000000 0.000000 0.000000
0.000000 0.000000 0.000000
0.000000 0.000000 0.000000
0.000000 0.000000 0.000000
0.000000 0.000000 0.000000
0.000000 0.000000 0.000000
0.000000 0.000000 0.000000
0.000000 0.000000 0.000000
0.000000 0.000000 0.000000
0.000000 0.000000 0.000000
0.000000 0.000000 0.000000
0.000000 0.000000 0.000000
0.000000 0.000000 0.000000
0.000000 0.000000 0.000000
0.000000 0.000000 0.000000
0.000000 0.000000 0.000000
0.000000 0.000000 0.000000
0.000000 0.000000 0.000000
0.000000 0.000000 0.000000
0.000000 0.000000 0.000000
0.000000 0.000000 0.000000
0.000000 0.000000 0.000000
0.000000 0.000000 0.000000
0.000000 0.000000 0.000000
0.000000 0.000000 0.000000
0.000000 0.000000 0.000000
0.000000 0.000000 0.000000
0.000000 0.000000 0.000000
0.000000 0.000000 0.000000
0.000000 0.000000 0.000000
0.000000 0.000000 0.000000
0.000000 0.000000 0.000000
0.000000 0.000000 0.000000
0.000000 0.000000 0.000000
0.000000 0.000000 0.000000
0.000000 0.000000 0.000000
0.000000 0.000000 0.000000
0.000000 0.000000 0.000000
0.000000 0.000000 0.000000
0.000000 0.000000 0.000000
0.000000 0.000000 0.000000
0.000000 0.000000 0.000000
0.000000 0.000000 0.000000
0.000000 0.000000 0.000000
0.000000 0.000000 0.000000
0.000000 0.000000 0.000000
0.000000 0.000000 0.000000
0.000000 0.000000 0.000000
0.000000 0.000000 0.000000
0.000000 0.000000 0.000000
0.000000 0.000000 0.000000
0.000000 0.000000 0.000000
0.000000 0.000000 0.000000
0.000000 0.000000 0.000000
0.000000 0.000000 0.000000
0.000000 0.000000 0.000000
0.000000 0.000000 0.000000
0.000000 0.000000 0.000000
0.000000 0.000000 0.000000
0.000000 0.000000 0.000000
0.000000 0.000000 0.000000
0.000000 0.000000 0.000000
0.000000 0.000000 0.000000
0.000000 0.000000 0.000000
0.000000 0.000000 0.000000
0.000000 0.000000 0.000000
0.000000 0.000000 0.000000
0.000000 0.000000 0.000000
0.000000 0.000000 0.000000
0.000000 0.000000 0.000000
0.000000 0.000000 0.000000
0.000000 0.000000 0.000000
0.000000 0.000000 0.000000
0.000000 0.000000 0.000000
0.000000 0.000000 0.000000
0.000000 0.000000 0.000000
0.000000 0.000000 0.000000
0.000000 0.000000 0.000000
0.000000 0.000000 0.000000
0.000000 0.000000 0.000000
0.000000 0.000000 0.000000
0.000000 0.000000 0.000000
0.000000 0.000000 0.000000
0.000000 0.000000 0.000000
0.000000 0.000000 0.000000
0.000000 0.000000 0.000000
0.000000 0.000000 0.000000
0.000000 0.000000 0.000000
0.000000 0.000000 0.000000
0.000000 0.000000 0.000000
0.000000 0.000000 0.000000
0.000000 0.000000 0.000000
0.000000 0.000000 0.000000
0.000000 0.000000 0.000000
0.000000 0.000000 0.000000
0.000000 0.000000 0.000000
0.000000 0.000000 0.000000
0.000000 0.000000 0.000000
0.000000 0.000000 0.000000
0.000000 0.000000 0.000000
0.000000 0.000000 0.000000
0.000000 0.000000 0.000000
0.000000 0.000000 0.000000
0.000000 0.000000 0.000000
0.000000 0.000000 0.000000
0.000000 0.000000 0.000000
0.000000 0.000000 0.000000
0.000000 0.000000 0.000000
0.000000 0.000000 0.000000
0.000000 0.000000 0.000000
0.000000 0.000000 0.000000
0.000000 0.000000 0.000000
0.000000 0.000000 0.000000
0.000000 0.000000 0.000000
0.000000 0.000000 0.000000
0.000000 0.000000 0.000000
0.000000 0.000000 0.000000
0.000000 0.000000 0.000000
0.000000 0.000000 0.000000
0.000000 0.000000 0.000000
0.000000 0.000000 0.000000
0.000000 0.000000 0.000000
0.000000 0.000000 0.000000
0.000000 0.000000 0.000000
0.000000 0.000000 0.000000
0.000000 0.000000 0.000000
0.714378 0.007085 0.000000
1.050558 0.039422 0.000000
1.248284 0.121408 0.000000
1.342212 0.235790 0.000000
1.326858 0.323954 0.000000
1.240046 0.318909 0.000000
1.161979 0.241331 0.000000
1.159483 0.044813 0.000000
0.747034 -0.000839 0.000000
0.000000 0.000000 0.000000
0.000000 0.000000 0.000000
0.000000 0.000000 0.000000
0.000000 0.000000 0.000000
0.000000 0.000000 0.000000
0.000000 0.000000 0.000000
0.000000 0.000000 0.000000
0.000000 0.000000 0.000000
0.000000 0.000000 0.000000
0.000000 0.000000 0.000000
0.000000 0.000000 0.000000
0.000000 0.000000 0.000000
0.000000 0.000000 0.000000
0.000000 0.000000 0.000000
0.000000 0.000000 0.000000
0.000000 0.000000 0.000000
0.000000 0.000000 0.000000
0.000000 0.000000 0.000000
0.000000 0.000000 0.000000
0.000000 0.000000 0.000000
0.000000 0.000000 0.000000
0.000000 0.000000 0.000000
0.000000 0.000000 0.000000
0.000000 0.000000 0.000000
0.000000 0.000000 0.000000
0.000000 0.000000 0.000000
0.000000 0.000000 0.000000
0.000000 0.000000 0.000000
0.000000 0.000000 0.000000
0.000000 0.000000 0.000000
0.000000 0.000000 0.000000
0.000000 0.000000 0.000000
0.000000 0.000000 0.000000
0.000000 0.000000 0.000000
0.000000 0.000000 0.000000
0.000000 0.000000 0.000000
0.000000 0.000000 0.000000
0.000000 0.000000 0.000000
0.000000 0.000000 0.000000
0.000000 0.000000 0.000000
0.000000 0.000000 0.000000
0.000000 0.000000 0.000000
0.000000 0.000000 0.000000
0.000000 0.000000 0.000000
0.000000 0.000000 0.000000
0.000000 0.000000 0.000000
0.000000 0.000000 0.000000
0.000000 0.000000 0.000000
0.000000 0.000000 0.000000
0.000000 0.000000 0.000000
0.000000 0.000000 0.000000
0.000000 0.000000 0.000000
0.000000 0.000000 0.000000
0.000000 0.000000 0.000000
0.000000 0.000000 0.000000
0.000000 0.000000 0.000000
0.000000 0.000000 0.000000
0.000000 0.000000 0.000000
0.000000 0.000000 0.000000
0.000000 0.000000 0.000000
0.000000 0.000000 0.000000
0.000000 0.000000 0.000000
0.000000 0.000000 0.000000
0.000000 0.000000 0.000000
0.000000 0.000000 0.000000
0.000000 0.000000 0.000000
0.000000 0.000000 0.000000
0.000000 0.000000 0.000000
0.000000 0.000000 0.000000
0.000000 0.000000 0.000000
0.000000 0.000000 0.000000
0.000000 0.000000 0.000000
0.000000 0.000000 0.000000
0.000000 0.000000 0.000000
0.000000 0.000000 0.000000
0.000000 0.000000 0.000000
0.000000 0.000000 0.000000
0.000000 0.000000 0.000000
0.000000 0.000000 0.000000
0.000000 0.000000 0.000000
0.000000 0.000000 0.000000
0.000000 0.000000 0.000000
0.000000 0.000000 0.000000
0.000000 0.000000 0.000000
0.000000 0.000000 0.000000
0.000000 0.000000 0.000000
0.000000 0.000000 0.000000
0.000000 0.000000 0.000000
0.000000 0.000000 0.000000
0.000000 0.000000 0.000000
0.000000 0.000000 0.000000
0.000000 0.000000 0.000000
0.000000 0.000000 0.000000
0.000000 0.000000 0.000000
0.000000 0.000000 0.000000
0.000000 0.000000 0.000000
0.000000 0.000000 0.000000
0.000000 0.000000 0.000000
0.000000 0.000000 0.000000
0.000000 0.000000 0.000000
0.000000 0.000000 0.000000
0.000000 0.000000 0.000000
0.000000 0.000000 0.000000
0.000000 0.000000 0.000000
0.000000 0.000000 0.000000
0.000000 0.000000 0.000000
0.000000 0.000000 0.000000
0.000000 0.000000 0.000000
0.000000 0.000000 0.000000
0.000000 0.000000 0.000000
0.000000 0.000000 0.000000
0.000000 0.000000 0.000000
0.000000 0.000000 0.000000
0.000000 0.000000 0.000000
0.000000 0.000000 0.000000
0.000000 0.000000 0.000000
0.000000 0.000000 0.000000
0.000000 0.000000 0.000000
0.000000 0.000000 0.000000
0.000000 0.000000 0.000000
0.000000 0.000000 0.000000
0.000000 0.000000 0.000000
0.000000 0.000000 0.000000
0.000000 0.000000 0.000000
0.000000 0.000000 0.000000
0.000000 0.000000 0.000000
0.000000 0.000000 0.000000
0.072227 -0.000232 0.000000
0.142938 -0.000796 0.000000
0.211758 -0.001635 0.000000
0.278714 -0.002601 0.000000
0.343854 -0.003596 0.000000
0.407199 -0.004580 0.000000
0.468756 -0.005539 0.000000
0.528527 -0.006466 0.000000
0.586512 -0.007359 0.000000
0.642710 -0.008214 0.000000
0.697122 -0.009028 0.000000
0.749748 -0.009796 0.000000
0.800587 -0.010515 0.000000
0.849639 -0.011180 0.000000
0.896903 -0.011785 0.000000
0.942381 -0.012327 0.000000
0.986072 -0.012799 0.000000
1.027975 -0.013196 0.000000
1.068092 -0.013512 0.000000
1.106421 -0.013743 0.000000
1.142964 -0.013883 0.000000
1.177719 -0.013928 0.000000
1.210689 -0.013874 0.000000
1.241873 -0.013717 0.000000
1.271271 -0.013456 0.000000
1.298885 -0.013090 0.000000
1.324715 -0.012619 0.000000
1.348761 -0.012045 0.000000
1.371025 -0.011372 0.000000
1.391507 -0.010605 0.000000
1.410208 -0.009751 0.000000
1.427128 -0.008818 0.000000
1.442269 -0.007815 0.000000
1.455630 -0.006755 0.000000
1.467213 -0.005648 0.000000
1.477017 -0.004509 0.000000
1.485042 -0.003350 0.000000
1.491290 -0.002185 0.000000
1.495758 -0.001028 0.000000
1.498448 0.000108 0.000000
1.499359 0.001212 0.000000
1.498490 0.002270 0.000000
1.495841 0.003275 0.000000
1.491411 0.004216 0.000000
1.485199 0.005086 0.000000
1.477205 0.005879 0.000000
1.467427 0.006592 0.000000
1.455866 0.007220 0.000000
1.442521 0.007764 0.000000
1.427390 0.008222 0.000000
1.410474 0.008597 0.000000
1.391773 0.008889 0.000000
1.371285 0.009102 0.000000
1.349010 0.009239 0.000000
1.324949 0.009305 0.000000
1.299101 0.009304 0.000000
1.271465 0.009241 0.000000
1.242043 0.009121 0.000000
1.210834 0.008949 0.000000
1.177838 0.008729 0.000000
1.143055 0.008466 0.000000
1.106485 0.008165 0.000000
1.068128 0.007831 0.000000
1.027985 0.007466 0.000000
0.986055 0.007077 0.000000
0.942339 0.006665 0.000000
0.896837 0.006234 0.000000