# vtk DataFile Version 3.0
CutFEM Results
ASCII
DATASET UNSTRUCTURED_GRID
POINTS 14959 float
0.000000 0.000000 0.000000
0.600000 0.000000 0.000000
0.600000 0.410000 0.000000
0.000000 0.410000 0.000000
2.200000 0.000000 0.000000
2.200000 0.410000 0.000000
0.005000 0.000000 0.000000
0.010000 0.000000 0.000000
0.015000 0.000000 0.000000
0.020000 0.000000 0.000000
0.025000 0.000000 0.000000
0.030000 0.000000 0.000000
0.035000 0.000000 0.000000
0.040000 0.000000 0.000000
0.045000 0.000000 0.000000
0.050000 0.000000 0.000000
0.055000 0.000000 0.000000
0.060000 0.000000 0.000000
0.065000 0.000000 0.000000
0.070000 0.000000 0.000000
0.075000 0.000000 0.000000
0.080000 0.000000 0.000000
0.085000 0.000000 0.000000
0.090000 0.000000 0.000000
0.095000 0.000000 0.000000
0.100000 0.000000 0.000000
0.105000 0.000000 0.000000
0.110000 0.000000 0.000000
0.115000 0.000000 0.000000
0.120000 0.000000 0.000000
0.125000 0.000000 0.000000
0.130000 0.000000 0.000000
0.135000 0.000000 0.000000
0.140000 0.000000 0.000000
0.145000 0.000000 0.000000
0.150000 0.000000 0.000000
0.155000 0.000000 0.000000
0.160000 0.000000 0.000000
0.165000 0.000000 0.000000
0.170000 0.000000 0.000000
0.175000 0.000000 0.000000
0.180000 0.000000 0.000000
0.185000 0.000000 0.000000
0.190000 0.000000 0.000000
0.195000 0.000000 0.000000
0.200000 0.000000 0.000000
0.205000 0.000000 0.000000
0.210000 0.000000 0.000000
0.215000 0.000000 0.000000
0.220000 0.000000 0.000000
0.225000 0.000000 0.000000
0.230000 0.000000 0.000000
0.235000 0.000000 0.000000
0.240000 0.000000 0.000000
0.245000 0.000000 0.000000
0.250000 0.000000 0.000000
0.255000 0.000000 0.000000
0.260000 0.000000 0.000000
0.265000 0.000000 0.000000
0.270000 0.000000 0.000000
0.275000 0.000000 0.000000
0.280000 0.000000 0.000000
0.285000 0.000000 0.000000
0.290000 0.000000 0.000000
0.295000 0.000000 0.000000
0.300000 0.000000 0.000000
0.305000 0.000000 0.000000
0.310000 0.000000 0.000000
0.315000 0.000000 0.000000
0.320000 0.000000 0.000000
0.325000 0.000000 0.000000
0.330000 0.000000 0.000000
0.335000 0.000000 0.000000
0.340000 0.000000 0.000000
0.345000 0.000000 0.000000
0.350000 0.000000 0.000000
0.355000 0.000000 0.000000
0.360000 0.000000 0.000000
0.365000 0.000000 0.000000
0.370000 0.000000 0.000000
0.375000 0.000000 0.000000
0.380000 0.000000 0.000000
0.385000 0.000000 0.000000
0.390000 0.000000 0.000000
0.395000 0.000000 0.000000
0.400000 0.000000 0.000000
0.405000 0.000000 0.000000
0.410000 0.000000 0.000000
0.415000 0.000000 0.000000
0.420000 0.000000 0.000000
0.425000 0.000000 0.000000
0.430000 0.000000 0.000000
0.435000 0.000000 0.000000
0.440000 0.000000 0.000000
0.445000 0.000000 0.000000
0.450000 0.000000 0.000000
0.455000 0.000000 0.000000
0.460000 0.000000 0.000000
0.465000 0.000000 0.000000
0.470000 0.000000 0.000000
0.475000 0.000000 0.000000
0.480000 0.000000 0.000000
0.485000 0.000000 0.000000
0.490000 0.000000 0.000000
0.495000 0.000000 0.000000
0.500000 0.000000 0.000000
0.505000 0.000000 0.000000
0.510000 0.000000 0.000000
0.515000 0.000000 0.000000
0.520000 0.000000 0.000000
0.525000 0.000000 0.000000
0.530000 0.000000 0.000000
0.535000 0.000000 0.000000
0.540000 0.000000 0.000000
0.545000 0.000000 0.000000
0.550000 0.000000 0.000000
0.555000 0.000000 0.000000
0.560000 0.000000 0.000000
0.565000 0.000000 0.000000
0.570000 0.000000 0.000000
0.575000 0.000000 0.000000
0.580000 0.000000 0.000000
0.585000 0.000000 0.000000
0.590000 0.000000 0.000000
0.595000 0.000000 0.000000
0.600000 0.005000 0.000000
0.600000 0.010000 0.000000
0.600000 0.015000 0.000000
0.600000 0.020000 0.000000
0.600000 0.025000 0.000000
0.600000 0.030000 0.000000
0.600000 0.035000 0.000000
0.600000 0.040000 0.000000
0.600000 0.045000 0.000000
0.600000 0.050000 0.000000
0.600000 0.055000 0.000000
0.600000 0.060000 0.000000
0.600000 0.065000 0.000000
0.600000 0.070000 0.000000
0.600000 0.075000 0.000000
0.600000 0.080000 0.000000
0.600000 0.085000 0.000000
0.600000 0.090000 0.000000
0.600000 0.095000 0.000000
0.600000 0.100000 0.000000
0.600000 0.105000 0.000000
0.600000 0.110000 0.000000
0.600000 0.115000 0.000000
0.600000 0.120000 0.000000
0.600000 0.125000 0.000000
0.600000 0.130000 0.000000
0.600000 0.135000 0.000000
0.600000 0.140000 0.000000
0.600000 0.145000 0.000000
0.600000 0.150000 0.000000
0.600000 0.155000 0.000000
0.600000 0.160000 0.000000
0.600000 0.165000 0.000000
0.600000 0.170000 0.000000
0.600000 0.175000 0.000000
0.600000 0.180000 0.000000
0.600000 0.185000 0.000000
0.600000 0.190000 0.000000
0.600000 0.195000 0.000000
0.600000 0.200000 0.000000
0.600000 0.205000 0.000000
0.600000 0.210000 0.000000
0.600000 0.215000 0.000000
0.600000 0.220000 0.000000
0.600000 0.225000 0.000000
0.600000 0.230000 0.000000
0.600000 0.235000 0.000000
0.600000 0.240000 0.000000
0.600000 0.245000 0.000000
0.600000 0.250000 0.000000
0.600000 0.255000 0.000000
0.600000 0.260000 0.000000
0.600000 0.265000 0.000000
0.600000 0.270000 0.000000
0.600000 0.275000 0.000000
0.600000 0.280000 0.000000
0.600000 0.285000 0.000000
0.600000 0.290000 0.000000
0.600000 0.295000 0.000000
0.600000 0.300000 0.000000
0.600000 0.305000 0.000000
0.600000 0.310000 0.000000
0.600000 0.315000 0.000000
0.600000 0.320000 0.000000
0.600000 0.325000 0.000000
0.600000 0.330000 0.000000
0.600000 0.335000 0.000000
0.600000 0.340000 0.000000
0.600000 0.345000 0.000000
0.600000 0.350000 0.000000
0.600000 0.355000 0.000000
0.600000 0.360000 0.000000
0.600000 0.365000 0.000000
0.600000 0.370000 0.000000
0.600000 0.375000 0.000000
0.600000 0.380000 0.000000
0.600000 0.385000 0.000000
0.600000 0.390000 0.000000
0.600000 0.395000 0.000000
0.600000 0.400000 0.000000
0.600000 0.405000 0.000000
0.595000 0.410000 0.000000
0.590000 0.410000 0.000000
0.585000 0.410000 0.000000
0.580000 0.410000 0.000000
0.575000 0.410000 0.000000
0.570000 0.410000 0.000000
0.565000 0.410000 0.000000
0.560000 0.410000 0.000000
0.555000 0.410000 0.000000
0.550000 0.410000 0.000000
0.545000 0.410000 0.000000
0.540000 0.410000 0.000000
0.535000 0.410000 0.000000
0.530000 0.410000 0.000000
0.525000 0.410000 0.000000
0.520000 0.410000 0.000000
0.515000 0.410000 0.000000
0.510000 0.410000 0.000000
0.505000 0.410000 0.000000
0.500000 0.410000 0.000000
0.495000 0.410000 0.000000
0.490000 0.410000 0.000000
0.485000 0.410000 0.000000
0.480000 0.410000 0.000000
0.475000 0.410000 0.000000
0.470000 0.410000 0.000000
0.465000 0.410000 0.000000
0.460000 0.410000 0.000000
0.455000 0.410000 0.000000
0.450000 0.410000 0.000000
0.445000 0.410000 0.000000
0.440000 0.410000 0.000000
0.435000 0.410000 0.000000
0.430000 0.410000 0.000000
0.425000 0.410000 0.000000
0.420000 0.410000 0.000000
0.415000 0.410000 0.000000
0.410000 0.410000 0.000000
0.405000 0.410000 0.000000
0.400000 0.410000 0.000000
0.395000 0.410000 0.000000
0.390000 0.410000 0.000000
0.385000 0.410000 0.000000
0.380000 0.410000 0.000000
0.375000 0.410000 0.000000
0.370000 0.410000 0.000000
0.365000 0.410000 0.000000
0.360000 0.410000 0.000000
0.355000 0.410000 0.000000
0.350000 0.410000 0.000000
0.345000 0.410000 0.000000
0.340000 0.410000 0.000000
0.335000 0.410000 0.000000
0.330000 0.410000 0.000000
0.325000 0.410000 0.000000
0.320000 0.410000 0.000000
0.315000 0.410000 0.000000
0.310000 0.410000 0.000000
0.305000 0.410000 0.000000
0.300000 0.410000 0.000000
0.295000 0.410000 0.000000
0.290000 0.410000 0.000000
0.285000 0.410000 0.000000
0.280000 0.410000 0.000000
0.275000 0.410000 0.000000
0.270000 0.410000 0.000000
0.265000 0.410000 0.000000
0.260000 0.410000 0.000000
0.255000 0.410000 0.000000
0.250000 0.410000 0.000000
0.245000 0.410000 0.000000
0.240000 0.410000 0.000000
0.235000 0.410000 0.000000
0.230000 0.410000 0.000000
0.225000 0.410000 0.000000
0.220000 0.410000 0.000000
0.215000 0.410000 0.000000
0.210000 0.410000 0.000000
0.205000 0.410000 0.000000
0.200000 0.410000 0.000000
0.195000 0.410000 0.000000
0.190000 0.410000 0.000000
0.185000 0.410000 0.000000
0.180000 0.410000 0.000000
0.175000 0.410000 0.000000
0.170000 0.410000 0.000000
0.165000 0.410000 0.000000
0.160000 0.410000 0.000000
0.155000 0.410000 0.000000
0.150000 0.410000 0.000000
0.145000 0.410000 0.000000
0.140000 0.410000 0.000000
0.135000 0.410000 0.000000
0.130000 0.410000 0.000000
0.125000 0.410000 0.000000
0.120000 0.410000 0.000000
0.115000 0.410000 0.000000
0.110000 0.410000 0.000000
0.105000 0.410000 0.000000
0.100000 0.410000 0.000000
0.095000 0.410000 0.000000
0.090000 0.410000 0.000000
0.085000 0.410000 0.000000
0.080000 0.410000 0.000000
0.075000 0.410000 0.000000
0.070000 0.410000 0.000000
0.065000 0.410000 0.000000
0.060000 0.410000 0.000000
0.055000 0.410000 0.000000
0.050000 0.410000 0.000000
0.045000 0.410000 0.000000
0.040000 0.410000 0.000000
0.035000 0.410000 0.000000
0.030000 0.410000 0.000000
0.025000 0.410000 0.000000
0.020000 0.410000 0.000000
0.015000 0.410000 0.000000
0.010000 0.410000 0.000000
0.005000 0.410000 0.000000
0.000000 0.405000 0.000000
0.000000 0.400000 0.000000
0.000000 0.395000 0.000000
0.000000 0.390000 0.000000
0.000000 0.385000 0.000000
0.000000 0.380000 0.000000
0.000000 0.375000 0.000000
0.000000 0.370000 0.000000
0.000000 0.365000 0.000000
0.000000 0.360000 0.000000
0.000000 0.355000 0.000000
0.000000 0.350000 0.000000
0.000000 0.345000 0.000000
0.000000 0.340000 0.000000
0.000000 0.335000 0.000000
0.000000 0.330000 0.000000
0.000000 0.325000 0.000000
0.000000 0.320000 0.000000
0.000000 0.315000 0.000000
0.000000 0.310000 0.000000
0.000000 0.305000 0.000000
0.000000 0.300000 0.000000
0.000000 0.295000 0.000000
0.000000 0.290000 0.000000
0.000000 0.285000 0.000000
0.000000 0.280000 0.000000
0.000000 0.275000 0.000000
0.000000 0.270000 0.000000
0.000000 0.265000 0.000000
0.000000 0.260000 0.000000
0.000000 0.255000 0.000000
0.000000 0.250000 0.000000
0.000000 0.245000 0.000000
0.000000 0.240000 0.000000
0.000000 0.235000 0.000000
0.000000 0.230000 0.000000
0.000000 0.225000 0.000000
0.000000 0.220000 0.000000
0.000000 0.215000 0.000000
0.000000 0.210000 0.000000
0.000000 0.205000 0.000000
[...]
POINT_DATA 14959
VECTORS velocity float
0.000000 0.000000 0.000000
0.000000 0.000000 0.000000
0.000000 0.000000 0.000000
0.000000 0.000000 0.000000
0.000000 0.000000 0.000000
0.000000 0.000000 0.000000
0.000000 0.000000 0.000000
0.000000 0.000000 0.000000
0.000000 0.000000 0.000000
0.000000 0.000000 0.000000
0.000000 0.000000 0.000000
0.000000 0.000000 0.000000
0.000000 0.000000 0.000000
0.000000 0.000000 0.000000
0.000000 0.000000 0.000000
0.000000 0.000000 0.000000
0.000000 0.000000 0.000000
0.000000 0.000000 0.000000
0.000000 0.000000 0.000000
0.000000 0.000000 0.000000
0.000000 0.000000 0.000000
0.000000 0.000000 0.000000
0.000000 0.000000 0.000000
0.000000 0.000000 0.000000
0.000000 0.000000 0.000000
0.000000 0.000000 0.000000
0.000000 0.000000 0.000000
0.000000 0.000000 0.000000
0.000000 0.000000 0.000000
0.000000 0.000000 0.000000
0.000000 0.000000 0.000000
0.000000 0.000000 0.000000
0.000000 0.000000 0.000000
0.000000 0.000000 0.000000
0.000000 0.000000 0.000000
0.000000 0.000000 0.000000
0.000000 0.000000 0.000000
0.000000 0.000000 0.000000
0.000000 0.000000 0.000000
0.000000 0.000000 0.000000
0.000000 0.000000 0.000000
0.000000 0.000000 0.000000
0.000000 0.000000 0.000000
0.000000 0.000000 0.000000
0.000000 0.000000 0.000000
0.000000 0.000000 0.000000
0.000000 0.000000 0.000000
0.000000 0.000000 0.000000
0.000000 0.000000 0.000000
0.000000 0.000000 0.000000
0.000000 0.000000 0.000000
0.000000 0.000000 0.000000
0.000000 0.000000 0.000000
0.000000 0.000000 0.000000
0.000000 0.000000 0.000000
0.000000 0.000000 0.000000
0.000000 0.000000 0.000000
0.000000 0.000000 0.000000
0.000000 0.000000 0.000000
0.000000 0.000000 0.000000
0.000000 0.000000 0.000000
0.000000 0.000000 0.000000
0.000000 0.000000 0.000000
0.000000 0.000000 0.000000
0.000000 0.000000 0.000000
0.000000 0.000000 0.000000
0.000000 0.000000 0.000000
0.000000 0.000000 0.000000
0.000000 0.000000 0.000000
0.000000 0.000000 0.000000
0.000000 0.000000 0.000000
0.000000 0.000000 0.000000
0.000000 0.000000 0.000000
0.000000 0.000000 0.000000
0.000000 0.000000 0.000000
0.000000 0.000000 0.000000
0.000000 0.000000 0.000000
0.000000 0.000000 0.000000
0.000000 0.000000 0.000000
0.000000 0.000000 0.000000
0.000000 0.000000 0.000000
0.000000 0.000000 0.000000
0.000000 0.000000 0.000000
0.000000 0.000000 0.000000
0.000000 0.000000 0.000000
0.000000 0.000000 0.000000
0.000000 0.000000 0.000000
0.000000 0.000000 0.000000
0.000000 0.000000 0.000000
0.000000 0.000000 0.000000
0.000000 0.000000 0.000000
0.000000 0.000000 0.000000
0.000000 0.000000 0.000000
0.000000 0.000000 0.000000
0.000000 0.000000 0.000000
0.000000 0.000000 0.000000
0.000000 0.000000 0.000000
0.000000 0.000000 0.000000
0.000000 0.000000 0.000000
0.000000 0.000000 0.000000
0.000000 0.000000 0.000000
0.000000 0.000000 0.000000
0.000000 0.000000 0.000000
0.000000 0.000000 0.000000
0.000000 0.000000 0.000000
0.000000 0.000000 0.000000
0.000000 0.000000 0.000000
0.000000 0.000000 0.000000
0.000000 0.000000 0.000000
0.000000 0.000000 0.000000
0.000000 0.000000 0.000000
0.000000 0.000000 0.000000
0.000000 0.000000 0.000000
0.000000 0.000000 0.000000
0.000000 0.000000 0.000000
0.000000 0.000000 0.000000
0.000000 0.000000 0.000000
0.000000 0.000000 0.000000
0.000000 0.000000 0.000000
0.000000 0.000000 0.000000
0.000000 0.000000 0.000000
0.000000 0.000000 0.000000
0.000000 0.000000 0.000000
0.000000 0.000000 0.000000
0.000000 0.000000 0.000000
0.134941 -0.002094 0.000000
0.266160 -0.005996 0.000000
0.385183 -0.010031 0.000000
0.494263 -0.012958 0.000000
0.596599 -0.014280 0.000000
0.695761 -0.013771 0.000000
0.793891 -0.011549 0.000000
0.891100 -0.008183 0.000000
0.985512 -0.004715 0.000000
1.073763 -0.002561 0.000000
1.151656 -0.003290 0.000000
1.214674 -0.008437 0.000000
1.258364 -0.019379 0.000000
1.279021 -0.037193 0.000000
1.275128 -0.062379 0.000000
1.249289 -0.094435 0.000000
1.209376 -0.131545 0.000000
1.167343 -0.170772 0.000000
1.135403 -0.208877 0.000000
1.121454 -0.243449 0.000000
1.126571 -0.273668 0.000000
1.146042 -0.300264 0.000000
1.172825 -0.324767 0.000000
1.200923 -0.348603 0.000000
1.226953 -0.372553 0.000000
1.249869 -0.396721 0.000000
1.269904 -0.420807 0.000000
1.287643 -0.444403 0.000000
1.303582 -0.467151 0.000000
1.318036 -0.488783 0.000000
1.331181 -0.509091 0.000000
1.343102 -0.527899 0.000000
1.353827 -0.545049 0.000000
1.363341 -0.560394 0.000000
1.371588 -0.573798 0.000000
1.378489 -0.585138 0.000000
1.383941 -0.594306 0.000000
1.387829 -0.601207 0.000000
1.390033 -0.605761 0.000000
1.390438 -0.607904 0.000000
1.388935 -0.607583 0.000000
1.385434 -0.604762 0.000000
1.379863 -0.599419 0.000000
1.372176 -0.591549 0.000000
1.362355 -0.581162 0.000000
1.350411 -0.568285 0.000000
1.336385 -0.552965 0.000000
1.320351 -0.535274 0.000000
1.302405 -0.515303 0.000000
1.282674 -0.493173 0.000000
1.261303 -0.469030 0.000000
1.238453 -0.443051 0.000000
1.214296 -0.415442 0.000000
1.189010 -0.386443 0.000000
1.162769 -0.356320 0.000000
1.135742 -0.325372 0.000000
1.108082 -0.293923 0.000000
1.079922 -0.262320 0.000000
1.051370 -0.230927 0.000000
1.022503 -0.200118 0.000000
0.993361 -0.170272 0.000000
0.963944 -0.141759 0.000000
0.934207 -0.114933 0.000000
0.904056 -0.090122 0.000000
0.873345 -0.067614 0.000000
0.841870 -0.047648 0.000000
0.809363 -0.030408 0.000000
0.775478 -0.016011 0.000000
0.739781 -0.004506 0.000000
0.701727 0.004131 0.000000
0.660646 0.010005 0.000000
0.615743 0.013303 0.000000
0.566145 0.014303 0.000000
0.511033 0.013382 0.000000
0.449893 0.011016 0.000000
0.382909 0.007780 0.000000
0.311429 0.004322 0.000000
0.238304 0.001292 0.000000
0.167703 -0.000721 0.000000
0.104014 -0.001305 0.000000
0.050154 -0.000757 0.000000
0.000000 0.000000 0.000000
0.000000 0.000000 0.000000
0.000000 0.000000 0.000000
0.000000 0.000000 0.000000
0.000000 0.000000 0.000000
0.000000 0.000000 0.000000
0.000000 0.000000 0.000000
0.000000 0.000000 0.000000
0.000000 0.000000 0.000000
0.000000 0.000000 0.000000
0.000000 0.000000 0.000000
0.000000 0.000000 0.000000
0.000000 0.000000 0.000000
0.000000 0.000000 0.000000
0.000000 0.000000 0.000000
0.000000 0.000000 0.000000
0.000000 0.000000 0.000000
0.000000 0.000000 0.000000
0.000000 0.000000 0.000000
0.000000 0.000000 0.000000
0.000000 0.000000 0.000000
0.000000 0.000000 0.000000
0.000000 0.000000 0.000000
0.000000 0.000000 0.000000
0.000000 0.000000 0.000000
0.000000 0.000000 0.000000
0.000000 0.000000 0.000000
0.000000 0.000000 0.000000
0.000000 0.000000 0.000000
0.000000 0.000000 0.000000
0.000000 0.000000 0.000000
0.000000 0.000000 0.000000
0.000000 0.000000 0.000000
0.000000 0.000000 0.000000
0.000000 0.000000 0.000000
0.000000 0.000000 0.000000
0.000000 0.000000 0.000000
0.000000 0.000000 0.000000
0.000000 0.000000 0.000000
0.000000 0.000000 0.000000
0.000000 0.000000 0.000000
0.000000 0.000000 0.000000
0.000000 0.000000 0.000000
0.000000 0.000000 0.000000
0.000000 0.000000 0.000000
0.000000 0.000000 0.000000
0.000000 0.000000 0.000000
0.000000 0.000000 0.000000
0.000000 0.000000 0.000000
0.000000 0.000000 0.000000
0.000000 0.000000 0.000000
0.000000 0.000000 0.000000
0.000000 0.000000 0.000000
0.000000 0.000000 0.000000
0.000000 0.000000 0.000000
0.000000 0.000000 0.000000
0.000000 0.000000 0.000000
0.000000 0.000000 0.000000
0.000000 0.000000 0.000000
0.000000 0.000000 0.000000
0.000000 0.000000 0.000000
0.000000 0.000000 0.000000
0.000000 0.000000 0.000000
0.000000 0.000000 0.000000
0.000000 0.000000 0.000000
0.000000 0.000000 0.000000
0.000000 0.000000 0.000000
0.000000 0.000000 0.000000
0.000000 0.000000 0.000000
0.000000 0.000000 0.000000
0.000000 0.000000 0.000000
0.000000 0.000000 0.000000
0.000000 0.000000 0.000000
0.000000 0.000000 0.000000
0.000000 0.000000 0.000000
0.000000 0.000000 0.000000
0.000000 0.000000 0.000000
0.000000 0.000000 0.000000
0.000000 0.000000 0.000000
0.000000 0.000000 0.000000
0.000000 0.000000 0.000000
0.000000 0.000000 0.000000
0.000000 0.000000 0.000000
0.000000 0.000000 0.000000
0.000000 0.000000 0.000000
0.000000 0.000000 0.000000
0.000000 0.000000 0.000000
0.000000 0.000000 0.000000
0.000000 0.000000 0.000000
0.000000 0.000000 0.000000
0.000000 0.000000 0.000000
0.000000 0.000000 0.000000
0.000000 0.000000 0.000000
0.000000 0.000000 0.000000
0.000000 0.000000 0.000000
0.000000 0.000000 0.000000
0.000000 0.000000 0.000000
0.000000 0.000000 0.000000
0.000000 0.000000 0.000000
0.000000 0.000000 0.000000
0.000000 0.000000 0.000000
0.000000 0.000000 0.000000
0.000000 0.000000 0.000000
0.000000 0.000000 0.000000
0.000000 0.000000 0.000000
0.000000 0.000000 0.000000
0.000000 0.000000 0.000000
0.000000 0.000000 0.000000
0.000000 0.000000 0.000000
0.000000 0.000000 0.000000
0.000000 0.000000 0.000000
0.000000 0.000000 0.000000
0.000000 0.000000 0.000000
0.000000 0.000000 0.000000
0.000000 0.000000 0.000000
0.000000 0.000000 0.000000
0.000000 0.000000 0.000000
0.000000 0.000000 0.000000
0.000000 0.000000 0.000000
0.072278 0.000000 0.000000
0.142772 0.000000 0.000000
0.211481 0.000000 0.000000
0.278406 0.000000 0.000000
0.343546 0.000000 0.000000
0.406901 0.000000 0.000000
0.468471 0.000000 0.000000
0.528257 0.000000 0.000000
0.586258 0.000000 0.000000
0.642475 0.000000 0.000000
0.696907 0.000000 0.000000
0.749554 0.000000 0.000000
0.800416 0.000000 0.000000
0.849494 0.000000 0.000000
0.896788 0.000000 0.000000
0.942296 0.000000 0.000000
0.986020 0.000000 0.000000
1.027960 0.000000 0.000000
1.068114 0.000000 0.000000
1.106484 0.000000 0.000000
1.143070 0.000000 0.000000
1.177870 0.000000 0.000000
1.210886 0.000000 0.000000
1.242118 0.000000 0.000000
1.271565 0.000000 0.000000
1.299227 0.000000 0.000000
1.325104 0.000000 0.000000
1.349197 0.000000 0.000000
1.371505 0.000000 0.000000
1.392029 0.000000 0.000000
1.410767 0.000000 0.000000
1.427722 0.000000 0.000000
1.442891 0.000000 0.000000
1.456276 0.000000 0.000000
1.467876 0.000000 0.000000
1.477692 0.000000 0.000000
1.485723 0.000000 0.000000
1.491969 0.000000 0.000000
1.496431 0.000000 0.000000
1.499108 0.000000 0.000000
1.500000 0.000000 0.000000
1.499108 0.000000 0.000000
1.496431 0.000000 0.000000
1.491969 0.000000 0.000000
1.485723 0.000000 0.000000
1.477692 0.000000 0.000000
1.467876 0.000000 0.000000
1.456276 0.000000 0.000000
1.442891 0.000000 0.000000
1.427722 0.000000 0.000000
1.410767 0.000000 0.000000
1.392029 0.000000 0.000000
1.371505 0.000000 0.000000
1.349197 0.000000 0.000000
1.325104 0.000000 0.000000
1.299227 0.000000 0.000000
1.271565 0.000000 0.000000
1.242118 0.000000 0.000000
1.210886 0.000000 0.000000
1.177870 0.000000 0.000000
1.143070 0.000000 0.000000
1.106484 0.000000 0.000000
1.068114 0.000000 0.000000
1.027960 0.000000 0.000000
0.986020 0.000000 0.000000
0.942296 0.000000 0.000000
0.896788 0.000000 0.000000
0.849494 0.000000 0.000000
0.800416 0.000000 0.000000
0.749554 0.000000 0.000000
0.696907 0.000000 0.000000
0.642475 0.000000 0.000000
0.586258 0.000000 0.000000
0.528257 0.000000 0.000000
0.468471 0.000000 0.000000
0.406901 0.000000 0.000000
0.343546 0.000000 0.000000
0.278406 0.000000 0.000000
0.211481 0.000000 0.000000
0.142772 0.000000 0.000000
0.072278 0.000000 0.000000
0.000000 0.000000 0.000000
0.000000 0.000000 0.000000
0.000000 0.000000 0.000000
0.000000 0.000000 0.000000
0.000000 0.000000 0.000000
0.000000 0.000000 0.000000
0.000000 0.000000 0.000000
0.000000 0.000000 0.000000
0.000000 0.000000 0.000000
0.000000 0.000000 0.000000
0.000000 0.000000 0.000000
0.000000 0.000000 0.000000
0.000000 0.000000 0.000000
0.000000 0.000000 0.000000
0.000000 0.000000 0.000000
0.000000 0.000000 0.000000
0.000000 0.000000 0.000000
0.000000 0.000000 0.000000
0.000000 0.000000 0.000000
0.000000 0.000000 0.000000
0.000000 0.000000 0.000000
0.000000 0.000000 0.000000
0.000000 0.000000 0.000000
0.000000 0.000000 0.000000
0.000000 0.000000 0.000000
0.000000 0.000000 0.000000
0.000000 0.000000 0.000000
0.000000 0.000000 0.000000
0.000000 0.000000 0.000000
0.000000 0.000000 0.000000
0.000000 0.000000 0.000000
0.000000 0.000000 0.000000
0.000000 0.000000 0.000000
0.000000 0.000000 0.000000
0.000000 0.000000 0.000000
0.000000 0.000000 0.000000
0.000000 0.000000 0.000000
0.000000 0.000000 0.000000
0.000000 0.000000 0.000000
0.000000 0.000000 0.000000
0.000000 0.000000 0.000000
0.000000 0.000000 0.000000
0.000000 0.000000 0.000000
0.000000 0.000000 0.000000
0.000000 0.000000 0.000000
0.000000 0.000000 0.000000
0.000000 0.000000 0.000000
0.000000 0.000000 0.000000
0.000000 0.000000 0.000000
0.000000 0.000000 0.000000
0.000000 0.000000 0.000000
0.000000 0.000000 0.000000
0.000000 0.000000 0.000000
0.000000 0.000000 0.000000
0.000000 0.000000 0.000000
0.000000 0.000000 0.000000
0.000000 0.000000 0.000000
0.000000 0.000000 0.000000
0.000000 0.000000 0.000000
0.000000 0.000000 0.000000
0.000000 0.000000 0.000000
0.000000 0.000000 0.000000
0.000000 0.000000 0.000000
0.000000 0.000000 0.000000
0.000000 0.000000 0.000000
0.000000 0.000000 0.000000
0.000000 0.000000 0.000000
0.000000 0.000000 0.000000
0.000000 0.000000 0.000000
0.000000 0.000000 0.000000
0.000000 0.000000 0.000000
0.000000 0.000000 0.000000
0.000000 0.000000 0.000000
0.000000 0.000000 0.000000
0.000000 0.000000 0.000000
0.000000 0.000000 0.000000
0.000000 0.000000 0.000000
0.000000 0.000000 0.000000
0.000000 0.000000 0.000000
0.000000 0.000000 0.000000
0.000000 0.000000 0.000000
0.000000 0.000000 0.000000
0.000000 0.000000 0.000000
0.000000 0.000000 0.000000
0.000000 0.000000 0.000000
0.000000 0.000000 0.000000
0.000000 0.000000 0.000000
0.000000 0.000000 0.000000
0.000000 0.000000 0.000000
0.000000 0.000000 0.000000
0.000000 0.000000 0.000000
0.000000 0.000000 0.000000
0.000000 0.000000 0.000000
0.000000 0.000000 0.000000
0.000000 0.000000 0.000000
0.000000 0.000000 0.000000
0.000000 0.000000 0.000000
0.000000 0.000000 0.000000
0.000000 0.000000 0.000000
0.000000 0.000000 0.000000
0.000000 0.000000 0.000000
0.000000 0.000000 0.000000
0.000000 0.000000 0.000000
0.000000 0.000000 0.000000
0.000000 0.000000 0.000000
0.000000 0.000000 0.000000
0.000000 0.000000 0.000000
0.000000 0.000000 0.000000
0.000000 0.000000 0.000000
0.000000 0.000000 0.000000
0.000000 0.000000 0.000000
0.000000 0.000000 0.000000
0.000000 0.000000 0.000000
0.000000 0.000000 0.000000
0.000000 0.000000 0.000000
0.000000 0.000000 0.000000
0.000000 0.000000 0.000000
0.000000 0.000000 0.000000
0.000000 0.000000 0.000000
0.000000 0.000000 0.000000
0.000000 0.000000 0.000000
0.000000 0.000000 0.000000
0.000000 0.000000 0.000000
0.000000 0.000000 0.000000
0.000000 0.000000 0.000000
0.000000 0.000000 0.000000
0.000000 0.000000 0.000000
0.682042 -0.002031 0.000000
1.113601 -0.035008 0.000000
1.394219 -0.113349 0.000000
1.617522 -0.209409 0.000000
1.612476 -0.200592 0.000000
1.377229 -0.141328 0.000000
1.022450 -0.031557 0.000000
0.714812 0.026098 0.000000
0.456639 0.008664 0.000000
0.000000 0.000000 0.000000
0.000000 0.000000 0.000000
0.000000 0.000000 0.000000
0.000000 0.000000 0.000000
0.000000 0.000000 0.000000
0.000000 0.000000 0.000000
0.000000 0.000000 0.000000
0.000000 0.000000 0.000000
0.000000 0.000000 0.000000
0.000000 0.000000 0.000000
0.000000 0.000000 0.000000
0.000000 0.000000 0.000000
0.000000 0.000000 0.000000
0.000000 0.000000 0.000000
0.000000 0.000000 0.000000
0.000000 0.000000 0.000000
0.000000 0.000000 0.000000
0.000000 0.000000 0.000000
0.000000 0.000000 0.000000
0.000000 0.000000 0.000000
0.000000 0.000000 0.000000
0.000000 0.000000 0.000000
0.000000 0.000000 0.000000
0.000000 0.000000 0.000000
0.000000 0.000000 0.000000
0.000000 0.000000 0.000000
0.000000 0.000000 0.000000
0.000000 0.000000 0.000000
0.000000 0.000000 0.000000
0.000000 0.000000 0.000000
0.000000 0.000000 0.000000
0.000000 0.000000 0.000000
0.000000 0.000000 0.000000
0.000000 0.000000 0.000000
0.000000 0.000000 0.000000
0.000000 0.000000 0.000000
0.000000 0.000000 0.000000
0.000000 0.000000 0.000000
0.000000 0.000000 0.000000
0.000000 0.000000 0.000000
0.000000 0.000000 0.000000
0.000000 0.000000 0.000000
0.000000 0.000000 0.000000
0.000000 0.000000 0.000000
0.000000 0.000000 0.000000
0.000000 0.000000 0.000000
0.000000 0.000000 0.000000
0.000000 0.000000 0.000000
0.000000 0.000000 0.000000
0.000000 0.000000 0.000000
0.000000 0.000000 0.000000
0.000000 0.000000 0.000000
0.000000 0.000000 0.000000
0.000000 0.000000 0.000000
0.000000 0.000000 0.000000
0.000000 0.000000 0.000000
0.000000 0.000000 0.000000
0.000000 0.000000 0.000000
0.000000 0.000000 0.000000
0.000000 0.000000 0.000000
0.000000 0.000000 0.000000
0.000000 0.000000 0.000000
0.000000 0.000000 0.000000
0.000000 0.000000 0.000000
0.000000 0.000000 0.000000
0.000000 0.000000 0.000000
0.000000 0.000000 0.000000
0.000000 0.000000 0.000000
0.000000 0.000000 0.000000
0.000000 0.000000 0.000000
0.000000 0.000000 0.000000
0.000000 0.000000 0.000000
0.000000 0.000000 0.000000
0.000000 0.000000 0.000000
0.000000 0.000000 0.000000
0.000000 0.000000 0.000000
0.000000 0.000000 0.000000
0.000000 0.000000 0.000000
0.000000 0.000000 0.000000
0.000000 0.000000 0.000000
0.000000 0.000000 0.000000
0.000000 0.000000 0.000000
0.000000 0.000000 0.000000
0.000000 0.000000 0.000000
0.000000 0.000000 0.000000
0.000000 0.000000 0.000000
0.000000 0.000000 0.000000
0.000000 0.000000 0.000000
0.000000 0.000000 0.000000
0.000000 0.000000 0.000000
0.000000 0.000000 0.000000
0.000000 0.000000 0.000000
0.000000 0.000000 0.000000
0.000000 0.000000 0.000000
0.000000 0.000000 0.000000
0.000000 0.000000 0.000000
0.000000 0.000000 0.000000
0.000000 0.000000 0.000000
0.000000 0.000000 0.000000
0.000000 0.000000 0.000000
0.000000 0.000000 0.000000
0.000000 0.000000 0.000000
0.000000 0.000000 0.000000
0.000000 0.000000 0.000000
0.000000 0.000000 0.000000
0.000000 0.000000 0.000000
0.000000 0.000000 0.000000
0.000000 0.000000 0.000000
0.000000 0.000000 0.000000
0.000000 0.000000 0.000000
0.000000 0.000000 0.000000
0.000000 0.000000 0.000000
0.000000 0.000000 0.000000
0.000000 0.000000 0.000000
0.000000 0.000000 0.000000
0.000000 0.000000 0.000000
0.000000 0.000000 0.000000
0.000000 0.000000 0.000000
0.000000 0.000000 0.000000
0.000000 0.000000 0.000000
0.000000 0.000000 0.000000
0.000000 0.000000 0.000000
0.000000 0.000000 0.000000
0.000000 0.000000 0.000000
0.000000 0.000000 0.000000
0.000000 0.000000 0.000000
0.000000 0.000000 0.000000
0.072198 -0.000201 0.000000
0.142874 -0.000667 0.000000
0.211683 -0.001369 0.000000
0.278641 -0.002189 0.000000
0.343786 -0.003046 0.000000
0.407136 -0.003901 0.000000
0.468697 -0.004739 0.000000
0.528470 -0.005551 0.000000
0.586457 -0.006334 0.000000
0.642657 -0.007083 0.000000
0.697071 -0.007793 0.000000
0.749698 -0.008460 0.000000
0.800538 -0.009080 0.000000
0.849591 -0.009648 0.000000
0.896857 -0.010159 0.000000
0.942335 -0.010607 0.000000
0.986027 -0.010987 0.000000
1.027932 -0.011295 0.000000
1.068049 -0.011524 0.000000
1.106380 -0.011669 0.000000
1.142924 -0.011727 0.000000
1.177681 -0.011692 0.000000
1.210653 -0.011561 0.000000
1.241839 -0.011332 0.000000
1.271239 -0.011003 0.000000
1.298855 -0.010573 0.000000
1.324688 -0.010043 0.000000
1.348737 -0.009416 0.000000
1.371003 -0.008696 0.000000
1.391488 -0.007887 0.000000
1.410192 -0.006998 0.000000
1.427116 -0.006036 0.000000
1.442260 -0.005012 0.000000
1.455625 -0.003937 0.000000
1.467211 -0.002822 0.000000
1.477018 -0.001682 0.000000
1.485047 -0.000530 0.000000
1.491298 0.000622 0.000000
1.495770 0.001759 0.000000
1.498463 0.002869 0.000000
1.499377 0.003939 0.000000
1.498511 0.004959 0.000000
1.495864 0.005918 0.000000
1.491436 0.006809 0.000000
1.485227 0.007624 0.000000
1.477235 0.008357 0.000000
1.467459 0.009006 0.000000
1.455900 0.009567 0.000000
1.442556 0.010040 0.000000
1.427426 0.010425 0.000000
1.410511 0.010724 0.000000
1.391810 0.010939 0.000000
1.371323 0.011073 0.000000
1.349048 0.011132 0.000000
1.324987 0.011118 0.000000
1.299139 0.011038 0.000000
1.271504 0.010896 0.000000
1.242081 0.010697 0.000000
1.210871 0.010447 0.000000
1.177875 0.010151 0.000000
1.143091 0.009813 0.000000
1.106521 0.009438 0.000000
1.068164 0.009031 0.000000
1.028020 0.008595 0.000000
0.986090 0.008135 0.000000