# vtk DataFile Version 3.0
CutFEM Results
ASCII
DATASET UNSTRUCTURED_GRID
POINTS 14959 float
0.000000 0.000000 0.000000
0.600000 0.000000 0.000000
0.600000 0.410000 0.000000
0.000000 0.410000 0.000000
2.200000 0.000000 0.000000
2.200000 0.410000 0.000000
0.005000 0.000000 0.000000
0.010000 0.000000 0.000000
0.015000 0.000000 0.000000
0.020000 0.000000 0.000000
0.025000 0.000000 0.000000
0.030000 0.000000 0.000000
0.035000 0.000000 0.000000
0.040000 0.000000 0.000000
0.045000 0.000000 0.000000
0.050000 0.000000 0.000000
0.055000 0.000000 0.000000
0.060000 0.000000 0.000000
0.065000 0.000000 0.000000
0.070000 0.000000 0.000000
0.075000 0.000000 0.000000
0.080000 0.000000 0.000000
0.085000 0.000000 0.000000
0.090000 0.000000 0.000000
0.095000 0.000000 0.000000
0.100000 0.000000 0.000000
0.105000 0.000000 0.000000
0.110000 0.000000 0.000000
0.115000 0.000000 0.000000
0.120000 0.000000 0.000000
0.125000 0.000000 0.000000
0.130000 0.000000 0.000000
0.135000 0.000000 0.000000
0.140000 0.000000 0.000000
0.145000 0.000000 0.000000
0.150000 0.000000 0.000000
0.155000 0.000000 0.000000
0.160000 0.000000 0.000000
0.165000 0.000000 0.000000
0.170000 0.000000 0.000000
0.175000 0.000000 0.000000
0.180000 0.000000 0.000000
0.185000 0.000000 0.000000
0.190000 0.000000 0.000000
0.195000 0.000000 0.000000
0.200000 0.000000 0.000000
0.205000 0.000000 0.000000
0.210000 0.000000 0.000000
0.215000 0.000000 0.000000
0.220000 0.000000 0.000000
0.225000 0.000000 0.000000
0.230000 0.000000 0.000000
0.235000 0.000000 0.000000
0.240000 0.000000 0.000000
0.245000 0.000000 0.000000
0.250000 0.000000 0.000000
0.255000 0.000000 0.000000
0.260000 0.000000 0.000000
0.265000 0.000000 0.000000
0.270000 0.000000 0.000000
0.275000 0.000000 0.000000
0.280000 0.000000 0.000000
0.285000 0.000000 0.000000
0.290000 0.000000 0.000000
0.295000 0.000000 0.000000
0.300000 0.000000 0.000000
0.305000 0.000000 0.000000
0.310000 0.000000 0.000000
0.315000 0.000000 0.000000
0.320000 0.000000 0.000000
0.325000 0.000000 0.000000
0.330000 0.000000 0.000000
0.335000 0.000000 0.000000
0.340000 0.000000 0.000000
0.345000 0.000000 0.000000
0.350000 0.000000 0.000000
0.355000 0.000000 0.000000
0.360000 0.000000 0.000000
0.365000 0.000000 0.000000
0.370000 0.000000 0.000000
0.375000 0.000000 0.000000
0.380000 0.000000 0.000000
0.385000 0.000000 0.000000
0.390000 0.000000 0.000000
0.395000 0.000000 0.000000
0.400000 0.000000 0.000000
0.405000 0.000000 0.000000
0.410000 0.000000 0.000000
0.415000 0.000000 0.000000
0.420000 0.000000 0.000000
0.425000 0.000000 0.000000
0.430000 0.000000 0.000000
0.435000 0.000000 0.000000
0.440000 0.000000 0.000000
0.445000 0.000000 0.000000
0.450000 0.000000 0.000000
0.455000 0.000000 0.000000
0.460000 0.000000 0.000000
0.465000 0.000000 0.000000
0.470000 0.000000 0.000000
0.475000 0.000000 0.000000
0.480000 0.000000 0.000000
0.485000 0.000000 0.000000
0.490000 0.000000 0.000000
0.495000 0.000000 0.000000
0.500000 0.000000 0.000000
0.505000 0.000000 0.000000
0.510000 0.000000 0.000000
0.515000 0.000000 0.000000
0.520000 0.000000 0.000000
0.525000 0.000000 0.000000
0.530000 0.000000 0.000000
0.535000 0.000000 0.000000
0.540000 0.000000 0.000000
0.545000 0.000000 0.000000
0.550000 0.000000 0.000000
0.555000 0.000000 0.000000
0.560000 0.000000 0.000000
0.565000 0.000000 0.000000
0.570000 0.000000 0.000000
0.575000 0.000000 0.000000
0.580000 0.000000 0.000000
0.585000 0.000000 0.000000
0.590000 0.000000 0.000000
0.595000 0.000000 0.000000
0.600000 0.005000 0.000000
0.600000 0.010000 0.000000
0.600000 0.015000 0.000000
0.600000 0.020000 0.000000
0.600000 0.025000 0.000000
0.600000 0.030000 0.000000
0.600000 0.035000 0.000000
0.600000 0.040000 0.000000
0.600000 0.045000 0.000000
0.600000 0.050000 0.000000
0.600000 0.055000 0.000000
0.600000 0.060000 0.000000
0.600000 0.065000 0.000000
0.600000 0.070000 0.000000
0.600000 0.075000 0.000000
0.600000 0.080000 0.000000
0.600000 0.085000 0.000000
0.600000 0.090000 0.000000
0.600000 0.095000 0.000000
0.600000 0.100000 0.000000
0.600000 0.105000 0.000000
0.600000 0.110000 0.000000
0.600000 0.115000 0.000000
0.600000 0.120000 0.000000
0.600000 0.125000 0.000000
0.600000 0.130000 0.000000
0.600000 0.135000 0.000000
0.600000 0.140000 0.000000
0.600000 0.145000 0.000000
0.600000 0.150000 0.000000
0.600000 0.155000 0.000000
0.600000 0.160000 0.000000
0.600000 0.165000 0.000000
0.600000 0.170000 0.000000
0.600000 0.175000 0.000000
0.600000 0.180000 0.000000
0.600000 0.185000 0.000000
0.600000 0.190000 0.000000
0.600000 0.195000 0.000000
0.600000 0.200000 0.000000
0.600000 0.205000 0.000000
0.600000 0.210000 0.000000
0.600000 0.215000 0.000000
0.600000 0.220000 0.000000
0.600000 0.225000 0.000000
0.600000 0.230000 0.000000
0.600000 0.235000 0.000000
0.600000 0.240000 0.000000
0.600000 0.245000 0.000000
0.600000 0.250000 0.000000
0.600000 0.255000 0.000000
0.600000 0.260000 0.000000
0.600000 0.265000 0.000000
0.600000 0.270000 0.000000
0.600000 0.275000 0.000000
0.600000 0.280000 0.000000
0.600000 0.285000 0.000000
0.600000 0.290000 0.000000
0.600000 0.295000 0.000000
0.600000 0.300000 0.000000
0.600000 0.305000 0.000000
0.600000 0.310000 0.000000
0.600000 0.315000 0.000000
0.600000 0.320000 0.000000
0.600000 0.325000 0.000000
0.600000 0.330000 0.000000
0.600000 0.335000 0.000000
0.600000 0.340000 0.000000
0.600000 0.345000 0.000000
0.600000 0.350000 0.000000
0.600000 0.355000 0.000000
0.600000 0.360000 0.000000
0.600000 0.365000 0.000000
0.600000 0.370000 0.000000
0.600000 0.375000 0.000000
0.600000 0.380000 0.000000
0.600000 0.385000 0.000000
0.600000 0.390000 0.000000
0.600000 0.395000 0.000000
0.600000 0.400000 0.000000
0.600000 0.405000 0.000000
0.595000 0.410000 0.000000
0.590000 0.410000 0.000000
0.585000 0.410000 0.000000
0.580000 0.410000 0.000000
0.575000 0.410000 0.000000
0.570000 0.410000 0.000000
0.565000 0.410000 0.000000
0.560000 0.410000 0.000000
0.555000 0.410000 0.000000
0.550000 0.410000 0.000000
0.545000 0.410000 0.000000
0.540000 0.410000 0.000000
0.535000 0.410000 0.000000
0.530000 0.410000 0.000000
0.525000 0.410000 0.000000
0.520000 0.410000 0.000000
0.515000 0.410000 0.000000
0.510000 0.410000 0.000000
0.505000 0.410000 0.000000
0.500000 0.410000 0.000000
0.495000 0.410000 0.000000
0.490000 0.410000 0.000000
0.485000 0.410000 0.000000
0.480000 0.410000 0.000000
0.475000 0.410000 0.000000
0.470000 0.410000 0.000000
0.465000 0.410000 0.000000
0.460000 0.410000 0.000000
0.455000 0.410000 0.000000
0.450000 0.410000 0.000000
0.445000 0.410000 0.000000
0.440000 0.410000 0.000000
0.435000 0.410000 0.000000
0.430000 0.410000 0.000000
0.425000 0.410000 0.000000
0.420000 0.410000 0.000000
0.415000 0.410000 0.000000
0.410000 0.410000 0.000000
0.405000 0.410000 0.000000
0.400000 0.410000 0.000000
0.395000 0.410000 0.000000
0.390000 0.410000 0.000000
0.385000 0.410000 0.000000
0.380000 0.410000 0.000000
0.375000 0.410000 0.000000
0.370000 0.410000 0.000000
0.365000 0.410000 0.000000
0.360000 0.410000 0.000000
0.355000 0.410000 0.000000
0.350000 0.410000 0.000000
0.345000 0.410000 0.000000
0.340000 0.410000 0.000000
0.335000 0.410000 0.000000
0.330000 0.410000 0.000000
0.325000 0.410000 0.000000
0.320000 0.410000 0.000000
0.315000 0.410000 0.000000
0.310000 0.410000 0.000000
0.305000 0.410000 0.000000
0.300000 0.410000 0.000000
0.295000 0.410000 0.000000
0.290000 0.410000 0.000000
0.285000 0.410000 0.000000
0.280000 0.410000 0.000000
0.275000 0.410000 0.000000
0.270000 0.410000 0.000000
0.265000 0.410000 0.000000
0.260000 0.410000 0.000000
0.255000 0.410000 0.000000
0.250000 0.410000 0.000000
0.245000 0.410000 0.000000
0.240000 0.410000 0.000000
0.235000 0.410000 0.000000
0.230000 0.410000 0.000000
0.225000 0.410000 0.000000
0.220000 0.410000 0.000000
0.215000 0.410000 0.000000
0.210000 0.410000 0.000000
0.205000 0.410000 0.000000
0.200000 0.410000 0.000000
0.195000 0.410000 0.000000
0.190000 0.410000 0.000000
0.185000 0.410000 0.000000
0.180000 0.410000 0.000000
0.175000 0.410000 0.000000
0.170000 0.410000 0.000000
0.165000 0.410000 0.000000
0.160000 0.410000 0.000000
0.155000 0.410000 0.000000
0.150000 0.410000 0.000000
0.145000 0.410000 0.000000
0.140000 0.410000 0.000000
0.135000 0.410000 0.000000
0.130000 0.410000 0.000000
0.125000 0.410000 0.000000
0.120000 0.410000 0.000000
0.115000 0.410000 0.000000
0.110000 0.410000 0.000000
0.105000 0.410000 0.000000
0.100000 0.410000 0.000000
0.095000 0.410000 0.000000
0.090000 0.410000 0.000000
0.085000 0.410000 0.000000
0.080000 0.410000 0.000000
0.075000 0.410000 0.000000
0.070000 0.410000 0.000000
0.065000 0.410000 0.000000
0.060000 0.410000 0.000000
0.055000 0.410000 0.000000
0.050000 0.410000 0.000000
0.045000 0.410000 0.000000
0.040000 0.410000 0.000000
0.035000 0.410000 0.000000
0.030000 0.410000 0.000000
0.025000 0.410000 0.000000
0.020000 0.410000 0.000000
0.015000 0.410000 0.000000
0.010000 0.410000 0.000000
0.005000 0.410000 0.000000
0.000000 0.405000 0.000000
0.000000 0.400000 0.000000
0.000000 0.395000 0.000000
0.000000 0.390000 0.000000
0.000000 0.385000 0.000000
0.000000 0.380000 0.000000
0.000000 0.375000 0.000000
0.000000 0.370000 0.000000
0.000000 0.365000 0.000000
0.000000 0.360000 0.000000
0.000000 0.355000 0.000000
0.000000 0.350000 0.000000
0.000000 0.345000 0.000000
0.000000 0.340000 0.000000
0.000000 0.335000 0.000000
0.000000 0.330000 0.000000
0.000000 0.325000 0.000000
0.000000 0.320000 0.000000
0.000000 0.315000 0.000000
0.000000 0.310000 0.000000
0.000000 0.305000 0.000000
0.000000 0.300000 0.000000
0.000000 0.295000 0.000000
0.000000 0.290000 0.000000
0.000000 0.285000 0.000000
0.000000 0.280000 0.000000
0.000000 0.275000 0.000000
0.000000 0.270000 0.000000
0.000000 0.265000 0.000000
0.000000 0.260000 0.000000
0.000000 0.255000 0.000000
0.000000 0.250000 0.000000
0.000000 0.245000 0.000000
0.000000 0.240000 0.000000
0.000000 0.235000 0.000000
0.000000 0.230000 0.000000
0.000000 0.225000 0.000000
0.000000 0.220000 0.000000
0.000000 0.215000 0.000000
0.000000 0.210000 0.000000
0.000000 0.205000 0.000000
[...]
POINT_DATA 14959
VECTORS velocity float
0.000000 0.000000 0.000000
0.000000 0.000000 0.000000
0.000000 0.000000 0.000000
0.000000 0.000000 0.000000
0.000000 0.000000 0.000000
0.000000 0.000000 0.000000
0.000000 0.000000 0.000000
0.000000 0.000000 0.000000
0.000000 0.000000 0.000000
0.000000 0.000000 0.000000
0.000000 0.000000 0.000000
0.000000 0.000000 0.000000
0.000000 0.000000 0.000000
0.000000 0.000000 0.000000
0.000000 0.000000 0.000000
0.000000 0.000000 0.000000
0.000000 0.000000 0.000000
0.000000 0.000000 0.000000
0.000000 0.000000 0.000000
0.000000 0.000000 0.000000
0.000000 0.000000 0.000000
0.000000 0.000000 0.000000
0.000000 0.000000 0.000000
0.000000 0.000000 0.000000
0.000000 0.000000 0.000000
0.000000 0.000000 0.000000
0.000000 0.000000 0.000000
0.000000 0.000000 0.000000
0.000000 0.000000 0.000000
0.000000 0.000000 0.000000
0.000000 0.000000 0.000000
0.000000 0.000000 0.000000
0.000000 0.000000 0.000000
0.000000 0.000000 0.000000
0.000000 0.000000 0.000000
0.000000 0.000000 0.000000
0.000000 0.000000 0.000000
0.000000 0.000000 0.000000
0.000000 0.000000 0.000000
0.000000 0.000000 0.000000
0.000000 0.000000 0.000000
0.000000 0.000000 0.000000
0.000000 0.000000 0.000000
0.000000 0.000000 0.000000
0.000000 0.000000 0.000000
0.000000 0.000000 0.000000
0.000000 0.000000 0.000000
0.000000 0.000000 0.000000
0.000000 0.000000 0.000000
0.000000 0.000000 0.000000
0.000000 0.000000 0.000000
0.000000 0.000000 0.000000
0.000000 0.000000 0.000000
0.000000 0.000000 0.000000
0.000000 0.000000 0.000000
0.000000 0.000000 0.000000
0.000000 0.000000 0.000000
0.000000 0.000000 0.000000
0.000000 0.000000 0.000000
0.000000 0.000000 0.000000
0.000000 0.000000 0.000000
0.000000 0.000000 0.000000
0.000000 0.000000 0.000000
0.000000 0.000000 0.000000
0.000000 0.000000 0.000000
0.000000 0.000000 0.000000
0.000000 0.000000 0.000000
0.000000 0.000000 0.000000
0.000000 0.000000 0.000000
0.000000 0.000000 0.000000
0.000000 0.000000 0.000000
0.000000 0.000000 0.000000
0.000000 0.000000 0.000000
0.000000 0.000000 0.000000
0.000000 0.000000 0.000000
0.000000 0.000000 0.000000
0.000000 0.000000 0.000000
0.000000 0.000000 0.000000
0.000000 0.000000 0.000000
0.000000 0.000000 0.000000
0.000000 0.000000 0.000000
0.000000 0.000000 0.000000
0.000000 0.000000 0.000000
0.000000 0.000000 0.000000
0.000000 0.000000 0.000000
0.000000 0.000000 0.000000
0.000000 0.000000 0.000000
0.000000 0.000000 0.000000
0.000000 0.000000 0.000000
0.000000 0.000000 0.000000
0.000000 0.000000 0.000000
0.000000 0.000000 0.000000
0.000000 0.000000 0.000000
0.000000 0.000000 0.000000
0.000000 0.000000 0.000000
0.000000 0.000000 0.000000
0.000000 0.000000 0.000000
0.000000 0.000000 0.000000
0.000000 0.000000 0.000000
0.000000 0.000000 0.000000
0.000000 0.000000 0.000000
0.000000 0.000000 0.000000
0.000000 0.000000 0.000000
0.000000 0.000000 0.000000
0.000000 0.000000 0.000000
0.000000 0.000000 0.000000
0.000000 0.000000 0.000000
0.000000 0.000000 0.000000
0.000000 0.000000 0.000000
0.000000 0.000000 0.000000
0.000000 0.000000 0.000000
0.000000 0.000000 0.000000
0.000000 0.000000 0.000000
0.000000 0.000000 0.000000
0.000000 0.000000 0.000000
0.000000 0.000000 0.000000
0.000000 0.000000 0.000000
0.000000 0.000000 0.000000
0.000000 0.000000 0.000000
0.000000 0.000000 0.000000
0.000000 0.000000 0.000000
0.000000 0.000000 0.000000
0.000000 0.000000 0.000000
0.000000 0.000000 0.000000
0.000000 0.000000 0.000000
0.052908 0.000409 0.000000
0.107316 0.000128 0.000000
0.170269 -0.001493 0.000000
0.239240 -0.004614 0.000000
0.310139 -0.008836 0.000000
0.378806 -0.013573 0.000000
0.442405 -0.018117 0.000000
0.499641 -0.021756 0.000000
0.550430 -0.023824 0.000000
0.595445 -0.023731 0.000000
0.635679 -0.020986 0.000000
0.672179 -0.015210 0.000000
0.705901 -0.006140 0.000000
0.737652 0.006373 0.000000
0.768094 0.022365 0.000000
0.797751 0.041765 0.000000
0.827034 0.064407 0.000000
0.856250 0.090037 0.000000
0.885612 0.118333 0.000000
0.915252 0.148915 0.000000
0.945226 0.181362 0.000000
0.975526 0.215230 0.000000
1.006085 0.250064 0.000000
1.036788 0.285409 0.000000
1.067484 0.320819 0.000000
1.097987 0.355870 0.000000
1.128091 0.390158 0.000000
1.157575 0.423314 0.000000
1.186208 0.455001 0.000000
1.213759 0.484920 0.000000
1.240003 0.512809 0.000000
1.264726 0.538451 0.000000
1.287734 0.561664 0.000000
1.308857 0.582307 0.000000
1.327953 0.600273 0.000000
1.344913 0.615492 0.000000
1.359661 0.627921 0.000000
1.372159 0.637543 0.000000
1.382402 0.644367 0.000000
1.390420 0.648418 0.000000
1.396268 0.649740 0.000000
1.400030 0.648390 0.000000
1.401805 0.644437 0.000000
1.401706 0.637964 0.000000
1.399850 0.629062 0.000000
1.396348 0.617833 0.000000
1.391302 0.604389 0.000000
1.384793 0.588854 0.000000
1.376871 0.571360 0.000000
1.367551 0.552051 0.000000
1.356803 0.531079 0.000000
1.344545 0.508608 0.000000
1.330633 0.484816 0.000000
1.314826 0.459916 0.000000
1.296745 0.434186 0.000000
1.275847 0.407989 0.000000
1.251619 0.381722 0.000000
1.224205 0.355636 0.000000
1.195526 0.329554 0.000000
1.170229 0.302688 0.000000
1.155304 0.273815 0.000000
1.157529 0.241888 0.000000
1.179574 0.206809 0.000000
1.217222 0.169851 0.000000
1.260016 0.133371 0.000000
1.295243 0.099976 0.000000
1.312688 0.071647 0.000000
1.307335 0.049309 0.000000
1.279108 0.032936 0.000000
1.230830 0.021943 0.000000
1.166198 0.015519 0.000000
1.088765 0.012750 0.000000
1.001795 0.012605 0.000000
0.908351 0.013932 0.000000
0.811074 0.015565 0.000000
0.711618 0.016521 0.000000
0.610028 0.016148 0.000000
0.504578 0.014216 0.000000
0.392128 0.010815 0.000000
0.269773 0.006365 0.000000
0.136231 0.002178 0.000000
0.000000 0.000000 0.000000
0.000000 0.000000 0.000000
0.000000 0.000000 0.000000
0.000000 0.000000 0.000000
0.000000 0.000000 0.000000
0.000000 0.000000 0.000000
0.000000 0.000000 0.000000
0.000000 0.000000 0.000000
0.000000 0.000000 0.000000
0.000000 0.000000 0.000000
0.000000 0.000000 0.000000
0.000000 0.000000 0.000000
0.000000 0.000000 0.000000
0.000000 0.000000 0.000000
0.000000 0.000000 0.000000
0.000000 0.000000 0.000000
0.000000 0.000000 0.000000
0.000000 0.000000 0.000000
0.000000 0.000000 0.000000
0.000000 0.000000 0.000000
0.000000 0.000000 0.000000
0.000000 0.000000 0.000000
0.000000 0.000000 0.000000
0.000000 0.000000 0.000000
0.000000 0.000000 0.000000
0.000000 0.000000 0.000000
0.000000 0.000000 0.000000
0.000000 0.000000 0.000000
0.000000 0.000000 0.000000
0.000000 0.000000 0.000000
0.000000 0.000000 0.000000
0.000000 0.000000 0.000000
0.000000 0.000000 0.000000
0.000000 0.000000 0.000000
0.000000 0.000000 0.000000
0.000000 0.000000 0.000000
0.000000 0.000000 0.000000
0.000000 0.000000 0.000000
0.000000 0.000000 0.000000
0.000000 0.000000 0.000000
0.000000 0.000000 0.000000
0.000000 0.000000 0.000000
0.000000 0.000000 0.000000
0.000000 0.000000 0.000000
0.000000 0.000000 0.000000
0.000000 0.000000 0.000000
0.000000 0.000000 0.000000
0.000000 0.000000 0.000000
0.000000 0.000000 0.000000
0.000000 0.000000 0.000000
0.000000 0.000000 0.000000
0.000000 0.000000 0.000000
0.000000 0.000000 0.000000
0.000000 0.000000 0.000000
0.000000 0.000000 0.000000
0.000000 0.000000 0.000000
0.000000 0.000000 0.000000
0.000000 0.000000 0.000000
0.000000 0.000000 0.000000
0.000000 0.000000 0.000000
0.000000 0.000000 0.000000
0.000000 0.000000 0.000000
0.000000 0.000000 0.000000
0.000000 0.000000 0.000000
0.000000 0.000000 0.000000
0.000000 0.000000 0.000000
0.000000 0.000000 0.000000
0.000000 0.000000 0.000000
0.000000 0.000000 0.000000
0.000000 0.000000 0.000000
0.000000 0.000000 0.000000
0.000000 0.000000 0.000000
0.000000 0.000000 0.000000
0.000000 0.000000 0.000000
0.000000 0.000000 0.000000
0.000000 0.000000 0.000000
0.000000 0.000000 0.000000
0.000000 0.000000 0.000000
0.000000 0.000000 0.000000
0.000000 0.000000 0.000000
0.000000 0.000000 0.000000
0.000000 0.000000 0.000000
0.000000 0.000000 0.000000
0.000000 0.000000 0.000000
0.000000 0.000000 0.000000
0.000000 0.000000 0.000000
0.000000 0.000000 0.000000
0.000000 0.000000 0.000000
0.000000 0.000000 0.000000
0.000000 0.000000 0.000000
0.000000 0.000000 0.000000
0.000000 0.000000 0.000000
0.000000 0.000000 0.000000
0.000000 0.000000 0.000000
0.000000 0.000000 0.000000
0.000000 0.000000 0.000000
0.000000 0.000000 0.000000
0.000000 0.000000 0.000000
0.000000 0.000000 0.000000
0.000000 0.000000 0.000000
0.000000 0.000000 0.000000
0.000000 0.000000 0.000000
0.000000 0.000000 0.000000
0.000000 0.000000 0.000000
0.000000 0.000000 0.000000
0.000000 0.000000 0.000000
0.000000 0.000000 0.000000
0.000000 0.000000 0.000000
0.000000 0.000000 0.000000
0.000000 0.000000 0.000000
0.000000 0.000000 0.000000
0.000000 0.000000 0.000000
0.000000 0.000000 0.000000
0.000000 0.000000 0.000000
0.000000 0.000000 0.000000
0.000000 0.000000 0.000000
0.000000 0.000000 0.000000
0.000000 0.000000 0.000000
0.000000 0.000000 0.000000
0.072278 0.000000 0.000000
0.142772 0.000000 0.000000
0.211481 0.000000 0.000000
0.278406 0.000000 0.000000
0.343546 0.000000 0.000000
0.406901 0.000000 0.000000
0.468471 0.000000 0.000000
0.528257 0.000000 0.000000
0.586258 0.000000 0.000000
0.642475 0.000000 0.000000
0.696907 0.000000 0.000000
0.749554 0.000000 0.000000
0.800416 0.000000 0.000000
0.849494 0.000000 0.000000
0.896788 0.000000 0.000000
0.942296 0.000000 0.000000
0.986020 0.000000 0.000000
1.027960 0.000000 0.000000
1.068114 0.000000 0.000000
1.106484 0.000000 0.000000
1.143070 0.000000 0.000000
1.177870 0.000000 0.000000
1.210886 0.000000 0.000000
1.242118 0.000000 0.000000
1.271565 0.000000 0.000000
1.299227 0.000000 0.000000
1.325104 0.000000 0.000000
1.349197 0.000000 0.000000
1.371505 0.000000 0.000000
1.392029 0.000000 0.000000
1.410767 0.000000 0.000000
1.427722 0.000000 0.000000
1.442891 0.000000 0.000000
1.456276 0.000000 0.000000
1.467876 0.000000 0.000000
1.477692 0.000000 0.000000
1.485723 0.000000 0.000000
1.491969 0.000000 0.000000
1.496431 0.000000 0.000000
1.499108 0.000000 0.000000
1.500000 0.000000 0.000000
1.499108 0.000000 0.000000
1.496431 0.000000 0.000000
1.491969 0.000000 0.000000
1.485723 0.000000 0.000000
1.477692 0.000000 0.000000
1.467876 0.000000 0.000000
1.456276 0.000000 0.000000
1.442891 0.000000 0.000000
1.427722 0.000000 0.000000
1.410767 0.000000 0.000000
1.392029 0.000000 0.000000
1.371505 0.000000 0.000000
1.349197 0.000000 0.000000
1.325104 0.000000 0.000000
1.299227 0.000000 0.000000
1.271565 0.000000 0.000000
1.242118 0.000000 0.000000
1.210886 0.000000 0.000000
1.177870 0.000000 0.000000
1.143070 0.000000 0.000000
1.106484 0.000000 0.000000
1.068114 0.000000 0.000000
1.027960 0.000000 0.000000
0.986020 0.000000 0.000000
0.942296 0.000000 0.000000
0.896788 0.000000 0.000000
0.849494 0.000000 0.000000
0.800416 0.000000 0.000000
0.749554 0.000000 0.000000
0.696907 0.000000 0.000000
0.642475 0.000000 0.000000
0.586258 0.000000 0.000000
0.528257 0.000000 0.000000
0.468471 0.000000 0.000000
0.406901 0.000000 0.000000
0.343546 0.000000 0.000000
0.278406 0.000000 0.000000
0.211481 0.000000 0.000000
0.142772 0.000000 0.000000
0.072278 0.000000 0.000000
0.000000 0.000000 0.000000
0.000000 0.000000 0.000000
0.000000 0.000000 0.000000
0.000000 0.000000 0.000000
0.000000 0.000000 0.000000
0.000000 0.000000 0.000000
0.000000 0.000000 0.000000
0.000000 0.000000 0.000000
0.000000 0.000000 0.000000
0.000000 0.000000 0.000000
0.000000 0.000000 0.000000
0.000000 0.000000 0.000000
0.000000 0.000000 0.000000
0.000000 0.000000 0.000000
0.000000 0.000000 0.000000
0.000000 0.000000 0.000000
0.000000 0.000000 0.000000
0.000000 0.000000 0.000000
0.000000 0.000000 0.000000
0.000000 0.000000 0.000000
0.000000 0.000000 0.000000
0.000000 0.000000 0.000000
0.000000 0.000000 0.000000
0.000000 0.000000 0.000000
0.000000 0.000000 0.000000
0.000000 0.000000 0.000000
0.000000 0.000000 0.000000
0.000000 0.000000 0.000000
0.000000 0.000000 0.000000
0.000000 0.000000 0.000000
0.000000 0.000000 0.000000
0.000000 0.000000 0.000000
0.000000 0.000000 0.000000
0.000000 0.000000 0.000000
0.000000 0.000000 0.000000
0.000000 0.000000 0.000000
0.000000 0.000000 0.000000
0.000000 0.000000 0.000000
0.000000 0.000000 0.000000
0.000000 0.000000 0.000000
0.000000 0.000000 0.000000
0.000000 0.000000 0.000000
0.000000 0.000000 0.000000
0.000000 0.000000 0.000000
0.000000 0.000000 0.000000
0.000000 0.000000 0.000000
0.000000 0.000000 0.000000
0.000000 0.000000 0.000000
0.000000 0.000000 0.000000
0.000000 0.000000 0.000000
0.000000 0.000000 0.000000
0.000000 0.000000 0.000000
0.000000 0.000000 0.000000
0.000000 0.000000 0.000000
0.000000 0.000000 0.000000
0.000000 0.000000 0.000000
0.000000 0.000000 0.000000
0.000000 0.000000 0.000000
0.000000 0.000000 0.000000
0.000000 0.000000 0.000000
0.000000 0.000000 0.000000
0.000000 0.000000 0.000000
0.000000 0.000000 0.000000
0.000000 0.000000 0.000000
0.000000 0.000000 0.000000
0.000000 0.000000 0.000000
0.000000 0.000000 0.000000
0.000000 0.000000 0.000000
0.000000 0.000000 0.000000
0.000000 0.000000 0.000000
0.000000 0.000000 0.000000
0.000000 0.000000 0.000000
0.000000 0.000000 0.000000
0.000000 0.000000 0.000000
0.000000 0.000000 0.000000
0.000000 0.000000 0.000000
0.000000 0.000000 0.000000
0.000000 0.000000 0.000000
0.000000 0.000000 0.000000
0.000000 0.000000 0.000000
0.000000 0.000000 0.000000
0.000000 0.000000 0.000000
0.000000 0.000000 0.000000
0.000000 0.000000 0.000000
0.000000 0.000000 0.000000
0.000000 0.000000 0.000000
0.000000 0.000000 0.000000
0.000000 0.000000 0.000000
0.000000 0.000000 0.000000
0.000000 0.000000 0.000000
0.000000 0.000000 0.000000
0.000000 0.000000 0.000000
0.000000 0.000000 0.000000
0.000000 0.000000 0.000000
0.000000 0.000000 0.000000
0.000000 0.000000 0.000000
0.000000 0.000000 0.000000
0.000000 0.000000 0.000000
0.000000 0.000000 0.000000
0.000000 0.000000 0.000000
0.000000 0.000000 0.000000
0.000000 0.000000 0.000000
0.000000 0.000000 0.000000
0.000000 0.000000 0.000000
0.000000 0.000000 0.000000
0.000000 0.000000 0.000000
0.000000 0.000000 0.000000
0.000000 0.000000 0.000000
0.000000 0.000000 0.000000
0.000000 0.000000 0.000000
0.000000 0.000000 0.000000
0.000000 0.000000 0.000000
0.000000 0.000000 0.000000
0.000000 0.000000 0.000000
0.000000 0.000000 0.000000
0.000000 0.000000 0.000000
0.000000 0.000000 0.000000
0.000000 0.000000 0.000000
0.000000 0.000000 0.000000
0.000000 0.000000 0.000000
0.000000 0.000000 0.000000
0.000000 0.000000 0.000000
0.000000 0.000000 0.000000
0.000000 0.000000 0.000000
0.000000 0.000000 0.000000
0.000000 0.000000 0.000000
0.000000 0.000000 0.000000
0.439667 -0.007960 0.000000
0.680901 -0.023025 0.000000
0.997878 0.044975 0.000000
1.360832 0.155492 0.000000
1.614632 0.211224 0.000000
1.631922 0.213987 0.000000
1.418983 0.119736 0.000000
1.145809 0.037565 0.000000
0.700409 0.002381 0.000000
0.000000 0.000000 0.000000
0.000000 0.000000 0.000000
0.000000 0.000000 0.000000
0.000000 0.000000 0.000000
0.000000 0.000000 0.000000
0.000000 0.000000 0.000000
0.000000 0.000000 0.000000
0.000000 0.000000 0.000000
0.000000 0.000000 0.000000
0.000000 0.000000 0.000000
0.000000 0.000000 0.000000
0.000000 0.000000 0.000000
0.000000 0.000000 0.000000
0.000000 0.000000 0.000000
0.000000 0.000000 0.000000
0.000000 0.000000 0.000000
0.000000 0.000000 0.000000
0.000000 0.000000 0.000000
0.000000 0.000000 0.000000
0.000000 0.000000 0.000000
0.000000 0.000000 0.000000
0.000000 0.000000 0.000000
0.000000 0.000000 0.000000
0.000000 0.000000 0.000000
0.000000 0.000000 0.000000
0.000000 0.000000 0.000000
0.000000 0.000000 0.000000
0.000000 0.000000 0.000000
0.000000 0.000000 0.000000
0.000000 0.000000 0.000000
0.000000 0.000000 0.000000
0.000000 0.000000 0.000000
0.000000 0.000000 0.000000
0.000000 0.000000 0.000000
0.000000 0.000000 0.000000
0.000000 0.000000 0.000000
0.000000 0.000000 0.000000
0.000000 0.000000 0.000000
0.000000 0.000000 0.000000
0.000000 0.000000 0.000000
0.000000 0.000000 0.000000
0.000000 0.000000 0.000000
0.000000 0.000000 0.000000
0.000000 0.000000 0.000000
0.000000 0.000000 0.000000
0.000000 0.000000 0.000000
0.000000 0.000000 0.000000
0.000000 0.000000 0.000000
0.000000 0.000000 0.000000
0.000000 0.000000 0.000000
0.000000 0.000000 0.000000
0.000000 0.000000 0.000000
0.000000 0.000000 0.000000
0.000000 0.000000 0.000000
0.000000 0.000000 0.000000
0.000000 0.000000 0.000000
0.000000 0.000000 0.000000
0.000000 0.000000 0.000000
0.000000 0.000000 0.000000
0.000000 0.000000 0.000000
0.000000 0.000000 0.000000
0.000000 0.000000 0.000000
0.000000 0.000000 0.000000
0.000000 0.000000 0.000000
0.000000 0.000000 0.000000
0.000000 0.000000 0.000000
0.000000 0.000000 0.000000
0.000000 0.000000 0.000000
0.000000 0.000000 0.000000
0.000000 0.000000 0.000000
0.000000 0.000000 0.000000
0.000000 0.000000 0.000000
0.000000 0.000000 0.000000
0.000000 0.000000 0.000000
0.000000 0.000000 0.000000
0.000000 0.000000 0.000000
0.000000 0.000000 0.000000
0.000000 0.000000 0.000000
0.000000 0.000000 0.000000
0.000000 0.000000 0.000000
0.000000 0.000000 0.000000
0.000000 0.000000 0.000000
0.000000 0.000000 0.000000
0.000000 0.000000 0.000000
0.000000 0.000000 0.000000
0.000000 0.000000 0.000000
0.000000 0.000000 0.000000
0.000000 0.000000 0.000000
0.000000 0.000000 0.000000
0.000000 0.000000 0.000000
0.000000 0.000000 0.000000
0.000000 0.000000 0.000000
0.000000 0.000000 0.000000
0.000000 0.000000 0.000000
0.000000 0.000000 0.000000
0.000000 0.000000 0.000000
0.000000 0.000000 0.000000
0.000000 0.000000 0.000000
0.000000 0.000000 0.000000
0.000000 0.000000 0.000000
0.000000 0.000000 0.000000
0.000000 0.000000 0.000000
0.000000 0.000000 0.000000
0.000000 0.000000 0.000000
0.000000 0.000000 0.000000
0.000000 0.000000 0.000000
0.000000 0.000000 0.000000
0.000000 0.000000 0.000000
0.000000 0.000000 0.000000
0.000000 0.000000 0.000000
0.000000 0.000000 0.000000
0.000000 0.000000 0.000000
0.000000 0.000000 0.000000
0.000000 0.000000 0.000000
0.000000 0.000000 0.000000
0.000000 0.000000 0.000000
0.000000 0.000000 0.000000
0.000000 0.000000 0.000000
0.000000 0.000000 0.000000
0.000000 0.000000 0.000000
0.000000 0.000000 0.000000
0.000000 0.000000 0.000000
0.000000 0.000000 0.000000
0.000000 0.000000 0.000000
0.000000 0.000000 0.000000
0.000000 0.000000 0.000000
0.000000 0.000000 0.000000
0.072149 -0.000149 0.000000
0.142751 -0.000432 0.000000
0.211530 -0.000860 0.000000
0.278489 -0.001381 0.000000
0.343644 -0.001949 0.000000
0.407007 -0.002539 0.000000
0.468582 -0.003137 0.000000
0.528371 -0.003738 0.000000
0.586373 -0.004339 0.000000
0.642589 -0.004936 0.000000
0.697019 -0.005526 0.000000
0.749664 -0.006107 0.000000
0.800522 -0.006676 0.000000
0.849594 -0.007230 0.000000
0.896879 -0.007767 0.000000
0.942379 -0.008281 0.000000
0.986091 -0.008771 0.000000
1.028018 -0.009231 0.000000
1.068157 -0.009659 0.000000
1.106510 -0.010048 0.000000
1.143075 -0.010396 0.000000
1.177854 -0.010695 0.000000
1.210845 -0.010943 0.000000
1.242049 -0.011132 0.000000
1.271466 -0.011259 0.000000
1.299096 -0.011316 0.000000
1.324938 -0.011301 0.000000
1.348994 -0.011207 0.000000
1.371264 -0.011030 0.000000
1.391747 -0.010768 0.000000
1.410445 -0.010416 0.000000
1.427357 -0.009974 0.000000
1.442484 -0.009441 0.000000
1.455828 -0.008817 0.000000
1.467388 -0.008104 0.000000
1.477165 -0.007306 0.000000
1.485160 -0.006428 0.000000
1.491374 -0.005477 0.000000
1.495808 -0.004462 0.000000
1.498462 -0.003391 0.000000
1.499336 -0.002276 0.000000
1.498432 -0.001130 0.000000
1.495748 0.000036 0.000000
1.491287 0.001208 0.000000
1.485047 0.002372 0.000000
1.477028 0.003515 0.000000
1.467231 0.004622 0.000000
1.455655 0.005683 0.000000
1.442299 0.006686 0.000000
1.427163 0.007620 0.000000
1.410246 0.008477 0.000000
1.391547 0.009248 0.000000
1.371066 0.009930 0.000000
1.348802 0.010516 0.000000
1.324754 0.011006 0.000000
1.298922 0.011397 0.000000
1.271304 0.011689 0.000000
1.241901 0.011886 0.000000
1.210712 0.011988 0.000000
1.177737 0.011999 0.000000
1.142975 0.011924 0.000000
1.106426 0.011767 0.000000
1.068090 0.011533 0.000000
1.027967 0.011227 0.000000
0.986056 0.010854 0.000000
0.942359 0.010420 0.000000
0.896875 0.009930 0.000000
0.849603 0.009389 0.000000