# vtk DataFile Version 3.0
CutFEM Results
ASCII
DATASET UNSTRUCTURED_GRID
POINTS 14959 float
0.000000 0.000000 0.000000
0.600000 0.000000 0.000000
0.600000 0.410000 0.000000
0.000000 0.410000 0.000000
2.200000 0.000000 0.000000
2.200000 0.410000 0.000000
0.005000 0.000000 0.000000
0.010000 0.000000 0.000000
0.015000 0.000000 0.000000
0.020000 0.000000 0.000000
0.025000 0.000000 0.000000
0.030000 0.000000 0.000000
0.035000 0.000000 0.000000
0.040000 0.000000 0.000000
0.045000 0.000000 0.000000
0.050000 0.000000 0.000000
0.055000 0.000000 0.000000
0.060000 0.000000 0.000000
0.065000 0.000000 0.000000
0.070000 0.000000 0.000000
0.075000 0.000000 0.000000
0.080000 0.000000 0.000000
0.085000 0.000000 0.000000
0.090000 0.000000 0.000000
0.095000 0.000000 0.000000
0.100000 0.000000 0.000000
0.105000 0.000000 0.000000
0.110000 0.000000 0.000000
0.115000 0.000000 0.000000
0.120000 0.000000 0.000000
0.125000 0.000000 0.000000
0.130000 0.000000 0.000000
0.135000 0.000000 0.000000
0.140000 0.000000 0.000000
0.145000 0.000000 0.000000
0.150000 0.000000 0.000000
0.155000 0.000000 0.000000
0.160000 0.000000 0.000000
0.165000 0.000000 0.000000
0.170000 0.000000 0.000000
0.175000 0.000000 0.000000
0.180000 0.000000 0.000000
0.185000 0.000000 0.000000
0.190000 0.000000 0.000000
0.195000 0.000000 0.000000
0.200000 0.000000 0.000000
0.205000 0.000000 0.000000
0.210000 0.000000 0.000000
0.215000 0.000000 0.000000
0.220000 0.000000 0.000000
0.225000 0.000000 0.000000
0.230000 0.000000 0.000000
0.235000 0.000000 0.000000
0.240000 0.000000 0.000000
0.245000 0.000000 0.000000
0.250000 0.000000 0.000000
0.255000 0.000000 0.000000
0.260000 0.000000 0.000000
0.265000 0.000000 0.000000
0.270000 0.000000 0.000000
0.275000 0.000000 0.000000
0.280000 0.000000 0.000000
0.285000 0.000000 0.000000
0.290000 0.000000 0.000000
0.295000 0.000000 0.000000
0.300000 0.000000 0.000000
0.305000 0.000000 0.000000
0.310000 0.000000 0.000000
0.315000 0.000000 0.000000
0.320000 0.000000 0.000000
0.325000 0.000000 0.000000
0.330000 0.000000 0.000000
0.335000 0.000000 0.000000
0.340000 0.000000 0.000000
0.345000 0.000000 0.000000
0.350000 0.000000 0.000000
0.355000 0.000000 0.000000
0.360000 0.000000 0.000000
0.365000 0.000000 0.000000
0.370000 0.000000 0.000000
0.375000 0.000000 0.000000
0.380000 0.000000 0.000000
0.385000 0.000000 0.000000
0.390000 0.000000 0.000000
0.395000 0.000000 0.000000
0.400000 0.000000 0.000000
0.405000 0.000000 0.000000
0.410000 0.000000 0.000000
0.415000 0.000000 0.000000
0.420000 0.000000 0.000000
0.425000 0.000000 0.000000
0.430000 0.000000 0.000000
0.435000 0.000000 0.000000
0.440000 0.000000 0.000000
0.445000 0.000000 0.000000
0.450000 0.000000 0.000000
0.455000 0.000000 0.000000
0.460000 0.000000 0.000000
0.465000 0.000000 0.000000
0.470000 0.000000 0.000000
0.475000 0.000000 0.000000
0.480000 0.000000 0.000000
0.485000 0.000000 0.000000
0.490000 0.000000 0.000000
0.495000 0.000000 0.000000
0.500000 0.000000 0.000000
0.505000 0.000000 0.000000
0.510000 0.000000 0.000000
0.515000 0.000000 0.000000
0.520000 0.000000 0.000000
0.525000 0.000000 0.000000
0.530000 0.000000 0.000000
0.535000 0.000000 0.000000
0.540000 0.000000 0.000000
0.545000 0.000000 0.000000
0.550000 0.000000 0.000000
0.555000 0.000000 0.000000
0.560000 0.000000 0.000000
0.565000 0.000000 0.000000
0.570000 0.000000 0.000000
0.575000 0.000000 0.000000
0.580000 0.000000 0.000000
0.585000 0.000000 0.000000
0.590000 0.000000 0.000000
0.595000 0.000000 0.000000
0.600000 0.005000 0.000000
0.600000 0.010000 0.000000
0.600000 0.015000 0.000000
0.600000 0.020000 0.000000
0.600000 0.025000 0.000000
0.600000 0.030000 0.000000
0.600000 0.035000 0.000000
0.600000 0.040000 0.000000
0.600000 0.045000 0.000000
0.600000 0.050000 0.000000
0.600000 0.055000 0.000000
0.600000 0.060000 0.000000
0.600000 0.065000 0.000000
0.600000 0.070000 0.000000
0.600000 0.075000 0.000000
0.600000 0.080000 0.000000
0.600000 0.085000 0.000000
0.600000 0.090000 0.000000
0.600000 0.095000 0.000000
0.600000 0.100000 0.000000
0.600000 0.105000 0.000000
0.600000 0.110000 0.000000
0.600000 0.115000 0.000000
0.600000 0.120000 0.000000
0.600000 0.125000 0.000000
0.600000 0.130000 0.000000
0.600000 0.135000 0.000000
0.600000 0.140000 0.000000
0.600000 0.145000 0.000000
0.600000 0.150000 0.000000
0.600000 0.155000 0.000000
0.600000 0.160000 0.000000
0.600000 0.165000 0.000000
0.600000 0.170000 0.000000
0.600000 0.175000 0.000000
0.600000 0.180000 0.000000
0.600000 0.185000 0.000000
0.600000 0.190000 0.000000
0.600000 0.195000 0.000000
0.600000 0.200000 0.000000
0.600000 0.205000 0.000000
0.600000 0.210000 0.000000
0.600000 0.215000 0.000000
0.600000 0.220000 0.000000
0.600000 0.225000 0.000000
0.600000 0.230000 0.000000
0.600000 0.235000 0.000000
0.600000 0.240000 0.000000
0.600000 0.245000 0.000000
0.600000 0.250000 0.000000
0.600000 0.255000 0.000000
0.600000 0.260000 0.000000
0.600000 0.265000 0.000000
0.600000 0.270000 0.000000
0.600000 0.275000 0.000000
0.600000 0.280000 0.000000
0.600000 0.285000 0.000000
0.600000 0.290000 0.000000
0.600000 0.295000 0.000000
0.600000 0.300000 0.000000
0.600000 0.305000 0.000000
0.600000 0.310000 0.000000
0.600000 0.315000 0.000000
0.600000 0.320000 0.000000
0.600000 0.325000 0.000000
0.600000 0.330000 0.000000
0.600000 0.335000 0.000000
0.600000 0.340000 0.000000
0.600000 0.345000 0.000000
0.600000 0.350000 0.000000
0.600000 0.355000 0.000000
0.600000 0.360000 0.000000
0.600000 0.365000 0.000000
0.600000 0.370000 0.000000
0.600000 0.375000 0.000000
0.600000 0.380000 0.000000
0.600000 0.385000 0.000000
0.600000 0.390000 0.000000
0.600000 0.395000 0.000000
0.600000 0.400000 0.000000
0.600000 0.405000 0.000000
0.595000 0.410000 0.000000
0.590000 0.410000 0.000000
0.585000 0.410000 0.000000
0.580000 0.410000 0.000000
0.575000 0.410000 0.000000
0.570000 0.410000 0.000000
0.565000 0.410000 0.000000
0.560000 0.410000 0.000000
0.555000 0.410000 0.000000
0.550000 0.410000 0.000000
0.545000 0.410000 0.000000
0.540000 0.410000 0.000000
0.535000 0.410000 0.000000
0.530000 0.410000 0.000000
0.525000 0.410000 0.000000
0.520000 0.410000 0.000000
0.515000 0.410000 0.000000
0.510000 0.410000 0.000000
0.505000 0.410000 0.000000
0.500000 0.410000 0.000000
0.495000 0.410000 0.000000
0.490000 0.410000 0.000000
0.485000 0.410000 0.000000
0.480000 0.410000 0.000000
0.475000 0.410000 0.000000
0.470000 0.410000 0.000000
0.465000 0.410000 0.000000
0.460000 0.410000 0.000000
0.455000 0.410000 0.000000
0.450000 0.410000 0.000000
0.445000 0.410000 0.000000
0.440000 0.410000 0.000000
0.435000 0.410000 0.000000
0.430000 0.410000 0.000000
0.425000 0.410000 0.000000
0.420000 0.410000 0.000000
0.415000 0.410000 0.000000
0.410000 0.410000 0.000000
0.405000 0.410000 0.000000
0.400000 0.410000 0.000000
0.395000 0.410000 0.000000
0.390000 0.410000 0.000000
0.385000 0.410000 0.000000
0.380000 0.410000 0.000000
0.375000 0.410000 0.000000
0.370000 0.410000 0.000000
0.365000 0.410000 0.000000
0.360000 0.410000 0.000000
0.355000 0.410000 0.000000
0.350000 0.410000 0.000000
0.345000 0.410000 0.000000
0.340000 0.410000 0.000000
0.335000 0.410000 0.000000
0.330000 0.410000 0.000000
0.325000 0.410000 0.000000
0.320000 0.410000 0.000000
0.315000 0.410000 0.000000
0.310000 0.410000 0.000000
0.305000 0.410000 0.000000
0.300000 0.410000 0.000000
0.295000 0.410000 0.000000
0.290000 0.410000 0.000000
0.285000 0.410000 0.000000
0.280000 0.410000 0.000000
0.275000 0.410000 0.000000
0.270000 0.410000 0.000000
0.265000 0.410000 0.000000
0.260000 0.410000 0.000000
0.255000 0.410000 0.000000
0.250000 0.410000 0.000000
0.245000 0.410000 0.000000
0.240000 0.410000 0.000000
0.235000 0.410000 0.000000
0.230000 0.410000 0.000000
0.225000 0.410000 0.000000
0.220000 0.410000 0.000000
0.215000 0.410000 0.000000
0.210000 0.410000 0.000000
0.205000 0.410000 0.000000
0.200000 0.410000 0.000000
0.195000 0.410000 0.000000
0.190000 0.410000 0.000000
0.185000 0.410000 0.000000
0.180000 0.410000 0.000000
0.175000 0.410000 0.000000
0.170000 0.410000 0.000000
0.165000 0.410000 0.000000
0.160000 0.410000 0.000000
0.155000 0.410000 0.000000
0.150000 0.410000 0.000000
0.145000 0.410000 0.000000
0.140000 0.410000 0.000000
0.135000 0.410000 0.000000
0.130000 0.410000 0.000000
0.125000 0.410000 0.000000
0.120000 0.410000 0.000000
0.115000 0.410000 0.000000
0.110000 0.410000 0.000000
0.105000 0.410000 0.000000
0.100000 0.410000 0.000000
0.095000 0.410000 0.000000
0.090000 0.410000 0.000000
0.085000 0.410000 0.000000
0.080000 0.410000 0.000000
0.075000 0.410000 0.000000
0.070000 0.410000 0.000000
0.065000 0.410000 0.000000
0.060000 0.410000 0.000000
0.055000 0.410000 0.000000
0.050000 0.410000 0.000000
0.045000 0.410000 0.000000
0.040000 0.410000 0.000000
0.035000 0.410000 0.000000
0.030000 0.410000 0.000000
0.025000 0.410000 0.000000
0.020000 0.410000 0.000000
0.015000 0.410000 0.000000
0.010000 0.410000 0.000000
0.005000 0.410000 0.000000
0.000000 0.405000 0.000000
0.000000 0.400000 0.000000
0.000000 0.395000 0.000000
0.000000 0.390000 0.000000
0.000000 0.385000 0.000000
0.000000 0.380000 0.000000
0.000000 0.375000 0.000000
0.000000 0.370000 0.000000
0.000000 0.365000 0.000000
0.000000 0.360000 0.000000
0.000000 0.355000 0.000000
0.000000 0.350000 0.000000
0.000000 0.345000 0.000000
0.000000 0.340000 0.000000
0.000000 0.335000 0.000000
0.000000 0.330000 0.000000
0.000000 0.325000 0.000000
0.000000 0.320000 0.000000
0.000000 0.315000 0.000000
0.000000 0.310000 0.000000
0.000000 0.305000 0.000000
0.000000 0.300000 0.000000
0.000000 0.295000 0.000000
0.000000 0.290000 0.000000
0.000000 0.285000 0.000000
0.000000 0.280000 0.000000
0.000000 0.275000 0.000000
0.000000 0.270000 0.000000
0.000000 0.265000 0.000000
0.000000 0.260000 0.000000
0.000000 0.255000 0.000000
0.000000 0.250000 0.000000
0.000000 0.245000 0.000000
0.000000 0.240000 0.000000
0.000000 0.235000 0.000000
0.000000 0.230000 0.000000
0.000000 0.225000 0.000000
0.000000 0.220000 0.000000
0.000000 0.215000 0.000000
0.000000 0.210000 0.000000
0.000000 0.205000 0.000000
[...]
POINT_DATA 14959
VECTORS velocity float
0.000000 0.000000 0.000000
0.000000 0.000000 0.000000
0.000000 0.000000 0.000000
0.000000 0.000000 0.000000
0.000000 0.000000 0.000000
0.000000 0.000000 0.000000
0.000000 0.000000 0.000000
0.000000 0.000000 0.000000
0.000000 0.000000 0.000000
0.000000 0.000000 0.000000
0.000000 0.000000 0.000000
0.000000 0.000000 0.000000
0.000000 0.000000 0.000000
0.000000 0.000000 0.000000
0.000000 0.000000 0.000000
0.000000 0.000000 0.000000
0.000000 0.000000 0.000000
0.000000 0.000000 0.000000
0.000000 0.000000 0.000000
0.000000 0.000000 0.000000
0.000000 0.000000 0.000000
0.000000 0.000000 0.000000
0.000000 0.000000 0.000000
0.000000 0.000000 0.000000
0.000000 0.000000 0.000000
0.000000 0.000000 0.000000
0.000000 0.000000 0.000000
0.000000 0.000000 0.000000
0.000000 0.000000 0.000000
0.000000 0.000000 0.000000
0.000000 0.000000 0.000000
0.000000 0.000000 0.000000
0.000000 0.000000 0.000000
0.000000 0.000000 0.000000
0.000000 0.000000 0.000000
0.000000 0.000000 0.000000
0.000000 0.000000 0.000000
0.000000 0.000000 0.000000
0.000000 0.000000 0.000000
0.000000 0.000000 0.000000
0.000000 0.000000 0.000000
0.000000 0.000000 0.000000
0.000000 0.000000 0.000000
0.000000 0.000000 0.000000
0.000000 0.000000 0.000000
0.000000 0.000000 0.000000
0.000000 0.000000 0.000000
0.000000 0.000000 0.000000
0.000000 0.000000 0.000000
0.000000 0.000000 0.000000
0.000000 0.000000 0.000000
0.000000 0.000000 0.000000
0.000000 0.000000 0.000000
0.000000 0.000000 0.000000
0.000000 0.000000 0.000000
0.000000 0.000000 0.000000
0.000000 0.000000 0.000000
0.000000 0.000000 0.000000
0.000000 0.000000 0.000000
0.000000 0.000000 0.000000
0.000000 0.000000 0.000000
0.000000 0.000000 0.000000
0.000000 0.000000 0.000000
0.000000 0.000000 0.000000
0.000000 0.000000 0.000000
0.000000 0.000000 0.000000
0.000000 0.000000 0.000000
0.000000 0.000000 0.000000
0.000000 0.000000 0.000000
0.000000 0.000000 0.000000
0.000000 0.000000 0.000000
0.000000 0.000000 0.000000
0.000000 0.000000 0.000000
0.000000 0.000000 0.000000
0.000000 0.000000 0.000000
0.000000 0.000000 0.000000
0.000000 0.000000 0.000000
0.000000 0.000000 0.000000
0.000000 0.000000 0.000000
0.000000 0.000000 0.000000
0.000000 0.000000 0.000000
0.000000 0.000000 0.000000
0.000000 0.000000 0.000000
0.000000 0.000000 0.000000
0.000000 0.000000 0.000000
0.000000 0.000000 0.000000
0.000000 0.000000 0.000000
0.000000 0.000000 0.000000
0.000000 0.000000 0.000000
0.000000 0.000000 0.000000
0.000000 0.000000 0.000000
0.000000 0.000000 0.000000
0.000000 0.000000 0.000000
0.000000 0.000000 0.000000
0.000000 0.000000 0.000000
0.000000 0.000000 0.000000
0.000000 0.000000 0.000000
0.000000 0.000000 0.000000
0.000000 0.000000 0.000000
0.000000 0.000000 0.000000
0.000000 0.000000 0.000000
0.000000 0.000000 0.000000
0.000000 0.000000 0.000000
0.000000 0.000000 0.000000
0.000000 0.000000 0.000000
0.000000 0.000000 0.000000
0.000000 0.000000 0.000000
0.000000 0.000000 0.000000
0.000000 0.000000 0.000000
0.000000 0.000000 0.000000
0.000000 0.000000 0.000000
0.000000 0.000000 0.000000
0.000000 0.000000 0.000000
0.000000 0.000000 0.000000
0.000000 0.000000 0.000000
0.000000 0.000000 0.000000
0.000000 0.000000 0.000000
0.000000 0.000000 0.000000
0.000000 0.000000 0.000000
0.000000 0.000000 0.000000
0.000000 0.000000 0.000000
0.000000 0.000000 0.000000
0.000000 0.000000 0.000000
0.000000 0.000000 0.000000
0.000000 0.000000 0.000000
0.034493 -0.001728 0.000000
0.098147 -0.006169 0.000000
0.181027 -0.013572 0.000000
0.270040 -0.022811 0.000000
0.357271 -0.033267 0.000000
0.436697 -0.044316 0.000000
0.504593 -0.055372 0.000000
0.559091 -0.065732 0.000000
0.599697 -0.074543 0.000000
0.626893 -0.080827 0.000000
0.641789 -0.083581 0.000000
0.646000 -0.081937 0.000000
0.641608 -0.075333 0.000000
0.631104 -0.063651 0.000000
0.617226 -0.047268 0.000000
0.602659 -0.026982 0.000000
0.589709 -0.003832 0.000000
0.580051 0.021143 0.000000
0.574653 0.047113 0.000000
0.573881 0.073579 0.000000
0.577722 0.100361 0.000000
0.586020 0.127509 0.000000
0.598653 0.155168 0.000000
0.615615 0.183453 0.000000
0.637011 0.212375 0.000000
0.663002 0.241807 0.000000
0.693733 0.271486 0.000000
0.729263 0.301039 0.000000
0.769514 0.330018 0.000000
0.814245 0.357927 0.000000
0.863034 0.384258 0.000000
0.915289 0.408510 0.000000
0.970265 0.430215 0.000000
1.027095 0.448948 0.000000
1.084822 0.464346 0.000000
1.142441 0.476106 0.000000
1.198940 0.484009 0.000000
1.253341 0.487908 0.000000
1.304743 0.487745 0.000000
1.352354 0.483538 0.000000
1.395526 0.475396 0.000000
1.433779 0.463483 0.000000
1.466816 0.448031 0.000000
1.494534 0.429281 0.000000
1.517021 0.407481 0.000000
1.534564 0.382820 0.000000
1.547654 0.355407 0.000000
1.557010 0.325198 0.000000
1.563631 0.291974 0.000000
1.568881 0.255272 0.000000
1.574590 0.214388 0.000000
1.583107 0.168410 0.000000
1.597156 0.116444 0.000000
1.619289 0.058062 0.000000
1.650852 -0.006031 0.000000
1.690750 -0.073404 0.000000
1.734696 -0.139817 0.000000
1.775682 -0.199969 0.000000
1.805811 -0.248916 0.000000
1.818663 -0.283484 0.000000
1.811026 -0.302979 0.000000
1.783139 -0.308892 0.000000
1.737666 -0.303931 0.000000
1.678159 -0.290988 0.000000
1.607900 -0.272493 0.000000
1.529448 -0.250263 0.000000
1.444767 -0.225668 0.000000
1.355562 -0.199859 0.000000
1.263516 -0.173884 0.000000
1.170305 -0.148679 0.000000
1.077466 -0.124983 0.000000
0.986231 -0.103278 0.000000
0.897422 -0.083779 0.000000
0.811405 -0.066489 0.000000
0.728073 -0.051281 0.000000
0.646755 -0.037994 0.000000
0.565962 -0.026513 0.000000
0.483002 -0.016800 0.000000
0.393282 -0.009080 0.000000
0.290249 -0.003642 0.000000
0.162447 -0.000994 0.000000
0.000000 0.000000 0.000000
0.000000 0.000000 0.000000
0.000000 0.000000 0.000000
0.000000 0.000000 0.000000
0.000000 0.000000 0.000000
0.000000 0.000000 0.000000
0.000000 0.000000 0.000000
0.000000 0.000000 0.000000
0.000000 0.000000 0.000000
0.000000 0.000000 0.000000
0.000000 0.000000 0.000000
0.000000 0.000000 0.000000
0.000000 0.000000 0.000000
0.000000 0.000000 0.000000
0.000000 0.000000 0.000000
0.000000 0.000000 0.000000
0.000000 0.000000 0.000000
0.000000 0.000000 0.000000
0.000000 0.000000 0.000000
0.000000 0.000000 0.000000
0.000000 0.000000 0.000000
0.000000 0.000000 0.000000
0.000000 0.000000 0.000000
0.000000 0.000000 0.000000
0.000000 0.000000 0.000000
0.000000 0.000000 0.000000
0.000000 0.000000 0.000000
0.000000 0.000000 0.000000
0.000000 0.000000 0.000000
0.000000 0.000000 0.000000
0.000000 0.000000 0.000000
0.000000 0.000000 0.000000
0.000000 0.000000 0.000000
0.000000 0.000000 0.000000
0.000000 0.000000 0.000000
0.000000 0.000000 0.000000
0.000000 0.000000 0.000000
0.000000 0.000000 0.000000
0.000000 0.000000 0.000000
0.000000 0.000000 0.000000
0.000000 0.000000 0.000000
0.000000 0.000000 0.000000
0.000000 0.000000 0.000000
0.000000 0.000000 0.000000
0.000000 0.000000 0.000000
0.000000 0.000000 0.000000
0.000000 0.000000 0.000000
0.000000 0.000000 0.000000
0.000000 0.000000 0.000000
0.000000 0.000000 0.000000
0.000000 0.000000 0.000000
0.000000 0.000000 0.000000
0.000000 0.000000 0.000000
0.000000 0.000000 0.000000
0.000000 0.000000 0.000000
0.000000 0.000000 0.000000
0.000000 0.000000 0.000000
0.000000 0.000000 0.000000
0.000000 0.000000 0.000000
0.000000 0.000000 0.000000
0.000000 0.000000 0.000000
0.000000 0.000000 0.000000
0.000000 0.000000 0.000000
0.000000 0.000000 0.000000
0.000000 0.000000 0.000000
0.000000 0.000000 0.000000
0.000000 0.000000 0.000000
0.000000 0.000000 0.000000
0.000000 0.000000 0.000000
0.000000 0.000000 0.000000
0.000000 0.000000 0.000000
0.000000 0.000000 0.000000
0.000000 0.000000 0.000000
0.000000 0.000000 0.000000
0.000000 0.000000 0.000000
0.000000 0.000000 0.000000
0.000000 0.000000 0.000000
0.000000 0.000000 0.000000
0.000000 0.000000 0.000000
0.000000 0.000000 0.000000
0.000000 0.000000 0.000000
0.000000 0.000000 0.000000
0.000000 0.000000 0.000000
0.000000 0.000000 0.000000
0.000000 0.000000 0.000000
0.000000 0.000000 0.000000
0.000000 0.000000 0.000000
0.000000 0.000000 0.000000
0.000000 0.000000 0.000000
0.000000 0.000000 0.000000
0.000000 0.000000 0.000000
0.000000 0.000000 0.000000
0.000000 0.000000 0.000000
0.000000 0.000000 0.000000
0.000000 0.000000 0.000000
0.000000 0.000000 0.000000
0.000000 0.000000 0.000000
0.000000 0.000000 0.000000
0.000000 0.000000 0.000000
0.000000 0.000000 0.000000
0.000000 0.000000 0.000000
0.000000 0.000000 0.000000
0.000000 0.000000 0.000000
0.000000 0.000000 0.000000
0.000000 0.000000 0.000000
0.000000 0.000000 0.000000
0.000000 0.000000 0.000000
0.000000 0.000000 0.000000
0.000000 0.000000 0.000000
0.000000 0.000000 0.000000
0.000000 0.000000 0.000000
0.000000 0.000000 0.000000
0.000000 0.000000 0.000000
0.000000 0.000000 0.000000
0.000000 0.000000 0.000000
0.000000 0.000000 0.000000
0.000000 0.000000 0.000000
0.000000 0.000000 0.000000
0.000000 0.000000 0.000000
0.072278 0.000000 0.000000
0.142772 0.000000 0.000000
0.211481 0.000000 0.000000
0.278406 0.000000 0.000000
0.343546 0.000000 0.000000
0.406901 0.000000 0.000000
0.468471 0.000000 0.000000
0.528257 0.000000 0.000000
0.586258 0.000000 0.000000
0.642475 0.000000 0.000000
0.696907 0.000000 0.000000
0.749554 0.000000 0.000000
0.800416 0.000000 0.000000
0.849494 0.000000 0.000000
0.896788 0.000000 0.000000
0.942296 0.000000 0.000000
0.986020 0.000000 0.000000
1.027960 0.000000 0.000000
1.068114 0.000000 0.000000
1.106484 0.000000 0.000000
1.143070 0.000000 0.000000
1.177870 0.000000 0.000000
1.210886 0.000000 0.000000
1.242118 0.000000 0.000000
1.271565 0.000000 0.000000
1.299227 0.000000 0.000000
1.325104 0.000000 0.000000
1.349197 0.000000 0.000000
1.371505 0.000000 0.000000
1.392029 0.000000 0.000000
1.410767 0.000000 0.000000
1.427722 0.000000 0.000000
1.442891 0.000000 0.000000
1.456276 0.000000 0.000000
1.467876 0.000000 0.000000
1.477692 0.000000 0.000000
1.485723 0.000000 0.000000
1.491969 0.000000 0.000000
1.496431 0.000000 0.000000
1.499108 0.000000 0.000000
1.500000 0.000000 0.000000
1.499108 0.000000 0.000000
1.496431 0.000000 0.000000
1.491969 0.000000 0.000000
1.485723 0.000000 0.000000
1.477692 0.000000 0.000000
1.467876 0.000000 0.000000
1.456276 0.000000 0.000000
1.442891 0.000000 0.000000
1.427722 0.000000 0.000000
1.410767 0.000000 0.000000
1.392029 0.000000 0.000000
1.371505 0.000000 0.000000
1.349197 0.000000 0.000000
1.325104 0.000000 0.000000
1.299227 0.000000 0.000000
1.271565 0.000000 0.000000
1.242118 0.000000 0.000000
1.210886 0.000000 0.000000
1.177870 0.000000 0.000000
1.143070 0.000000 0.000000
1.106484 0.000000 0.000000
1.068114 0.000000 0.000000
1.027960 0.000000 0.000000
0.986020 0.000000 0.000000
0.942296 0.000000 0.000000
0.896788 0.000000 0.000000
0.849494 0.000000 0.000000
0.800416 0.000000 0.000000
0.749554 0.000000 0.000000
0.696907 0.000000 0.000000
0.642475 0.000000 0.000000
0.586258 0.000000 0.000000
0.528257 0.000000 0.000000
0.468471 0.000000 0.000000
0.406901 0.000000 0.000000
0.343546 0.000000 0.000000
0.278406 0.000000 0.000000
0.211481 0.000000 0.000000
0.142772 0.000000 0.000000
0.072278 0.000000 0.000000
0.000000 0.000000 0.000000
0.000000 0.000000 0.000000
0.000000 0.000000 0.000000
0.000000 0.000000 0.000000
0.000000 0.000000 0.000000
0.000000 0.000000 0.000000
0.000000 0.000000 0.000000
0.000000 0.000000 0.000000
0.000000 0.000000 0.000000
0.000000 0.000000 0.000000
0.000000 0.000000 0.000000
0.000000 0.000000 0.000000
0.000000 0.000000 0.000000
0.000000 0.000000 0.000000
0.000000 0.000000 0.000000
0.000000 0.000000 0.000000
0.000000 0.000000 0.000000
0.000000 0.000000 0.000000
0.000000 0.000000 0.000000
0.000000 0.000000 0.000000
0.000000 0.000000 0.000000
0.000000 0.000000 0.000000
0.000000 0.000000 0.000000
0.000000 0.000000 0.000000
0.000000 0.000000 0.000000
0.000000 0.000000 0.000000
0.000000 0.000000 0.000000
0.000000 0.000000 0.000000
0.000000 0.000000 0.000000
0.000000 0.000000 0.000000
0.000000 0.000000 0.000000
0.000000 0.000000 0.000000
0.000000 0.000000 0.000000
0.000000 0.000000 0.000000
0.000000 0.000000 0.000000
0.000000 0.000000 0.000000
0.000000 0.000000 0.000000
0.000000 0.000000 0.000000
0.000000 0.000000 0.000000
0.000000 0.000000 0.000000
0.000000 0.000000 0.000000
0.000000 0.000000 0.000000
0.000000 0.000000 0.000000
0.000000 0.000000 0.000000
0.000000 0.000000 0.000000
0.000000 0.000000 0.000000
0.000000 0.000000 0.000000
0.000000 0.000000 0.000000
0.000000 0.000000 0.000000
0.000000 0.000000 0.000000
0.000000 0.000000 0.000000
0.000000 0.000000 0.000000
0.000000 0.000000 0.000000
0.000000 0.000000 0.000000
0.000000 0.000000 0.000000
0.000000 0.000000 0.000000
0.000000 0.000000 0.000000
0.000000 0.000000 0.000000
0.000000 0.000000 0.000000
0.000000 0.000000 0.000000
0.000000 0.000000 0.000000
0.000000 0.000000 0.000000
0.000000 0.000000 0.000000
0.000000 0.000000 0.000000
0.000000 0.000000 0.000000
0.000000 0.000000 0.000000
0.000000 0.000000 0.000000
0.000000 0.000000 0.000000
0.000000 0.000000 0.000000
0.000000 0.000000 0.000000
0.000000 0.000000 0.000000
0.000000 0.000000 0.000000
0.000000 0.000000 0.000000
0.000000 0.000000 0.000000
0.000000 0.000000 0.000000
0.000000 0.000000 0.000000
0.000000 0.000000 0.000000
0.000000 0.000000 0.000000
0.000000 0.000000 0.000000
0.000000 0.000000 0.000000
0.000000 0.000000 0.000000
0.000000 0.000000 0.000000
0.000000 0.000000 0.000000
0.000000 0.000000 0.000000
0.000000 0.000000 0.000000
0.000000 0.000000 0.000000
0.000000 0.000000 0.000000
0.000000 0.000000 0.000000
0.000000 0.000000 0.000000
0.000000 0.000000 0.000000
0.000000 0.000000 0.000000
0.000000 0.000000 0.000000
0.000000 0.000000 0.000000
0.000000 0.000000 0.000000
0.000000 0.000000 0.000000
0.000000 0.000000 0.000000
0.000000 0.000000 0.000000
0.000000 0.000000 0.000000
0.000000 0.000000 0.000000
0.000000 0.000000 0.000000
0.000000 0.000000 0.000000
0.000000 0.000000 0.000000
0.000000 0.000000 0.000000
0.000000 0.000000 0.000000
0.000000 0.000000 0.000000
0.000000 0.000000 0.000000
0.000000 0.000000 0.000000
0.000000 0.000000 0.000000
0.000000 0.000000 0.000000
0.000000 0.000000 0.000000
0.000000 0.000000 0.000000
0.000000 0.000000 0.000000
0.000000 0.000000 0.000000
0.000000 0.000000 0.000000
0.000000 0.000000 0.000000
0.000000 0.000000 0.000000
0.000000 0.000000 0.000000
0.000000 0.000000 0.000000
0.000000 0.000000 0.000000
0.000000 0.000000 0.000000
0.000000 0.000000 0.000000
0.000000 0.000000 0.000000
0.000000 0.000000 0.000000
0.000000 0.000000 0.000000
0.000000 0.000000 0.000000
0.000000 0.000000 0.000000
0.000000 0.000000 0.000000
0.488921 -0.039171 0.000000
0.760985 -0.171036 0.000000
1.035093 -0.226385 0.000000
1.419850 -0.250113 0.000000
1.642519 -0.250253 0.000000
1.626975 -0.225196 0.000000
1.366931 -0.191168 0.000000
1.011373 -0.091307 0.000000
0.638668 -0.018934 0.000000
0.000000 0.000000 0.000000
0.000000 0.000000 0.000000
0.000000 0.000000 0.000000
0.000000 0.000000 0.000000
0.000000 0.000000 0.000000
0.000000 0.000000 0.000000
0.000000 0.000000 0.000000
0.000000 0.000000 0.000000
0.000000 0.000000 0.000000
0.000000 0.000000 0.000000
0.000000 0.000000 0.000000
0.000000 0.000000 0.000000
0.000000 0.000000 0.000000
0.000000 0.000000 0.000000
0.000000 0.000000 0.000000
0.000000 0.000000 0.000000
0.000000 0.000000 0.000000
0.000000 0.000000 0.000000
0.000000 0.000000 0.000000
0.000000 0.000000 0.000000
0.000000 0.000000 0.000000
0.000000 0.000000 0.000000
0.000000 0.000000 0.000000
0.000000 0.000000 0.000000
0.000000 0.000000 0.000000
0.000000 0.000000 0.000000
0.000000 0.000000 0.000000
0.000000 0.000000 0.000000
0.000000 0.000000 0.000000
0.000000 0.000000 0.000000
0.000000 0.000000 0.000000
0.000000 0.000000 0.000000
0.000000 0.000000 0.000000
0.000000 0.000000 0.000000
0.000000 0.000000 0.000000
0.000000 0.000000 0.000000
0.000000 0.000000 0.000000
0.000000 0.000000 0.000000
0.000000 0.000000 0.000000
0.000000 0.000000 0.000000
0.000000 0.000000 0.000000
0.000000 0.000000 0.000000
0.000000 0.000000 0.000000
0.000000 0.000000 0.000000
0.000000 0.000000 0.000000
0.000000 0.000000 0.000000
0.000000 0.000000 0.000000
0.000000 0.000000 0.000000
0.000000 0.000000 0.000000
0.000000 0.000000 0.000000
0.000000 0.000000 0.000000
0.000000 0.000000 0.000000
0.000000 0.000000 0.000000
0.000000 0.000000 0.000000
0.000000 0.000000 0.000000
0.000000 0.000000 0.000000
0.000000 0.000000 0.000000
0.000000 0.000000 0.000000
0.000000 0.000000 0.000000
0.000000 0.000000 0.000000
0.000000 0.000000 0.000000
0.000000 0.000000 0.000000
0.000000 0.000000 0.000000
0.000000 0.000000 0.000000
0.000000 0.000000 0.000000
0.000000 0.000000 0.000000
0.000000 0.000000 0.000000
0.000000 0.000000 0.000000
0.000000 0.000000 0.000000
0.000000 0.000000 0.000000
0.000000 0.000000 0.000000
0.000000 0.000000 0.000000
0.000000 0.000000 0.000000
0.000000 0.000000 0.000000
0.000000 0.000000 0.000000
0.000000 0.000000 0.000000
0.000000 0.000000 0.000000
0.000000 0.000000 0.000000
0.000000 0.000000 0.000000
0.000000 0.000000 0.000000
0.000000 0.000000 0.000000
0.000000 0.000000 0.000000
0.000000 0.000000 0.000000
0.000000 0.000000 0.000000
0.000000 0.000000 0.000000
0.000000 0.000000 0.000000
0.000000 0.000000 0.000000
0.000000 0.000000 0.000000
0.000000 0.000000 0.000000
0.000000 0.000000 0.000000
0.000000 0.000000 0.000000
0.000000 0.000000 0.000000
0.000000 0.000000 0.000000
0.000000 0.000000 0.000000
0.000000 0.000000 0.000000
0.000000 0.000000 0.000000
0.000000 0.000000 0.000000
0.000000 0.000000 0.000000
0.000000 0.000000 0.000000
0.000000 0.000000 0.000000
0.000000 0.000000 0.000000
0.000000 0.000000 0.000000
0.000000 0.000000 0.000000
0.000000 0.000000 0.000000
0.000000 0.000000 0.000000
0.000000 0.000000 0.000000
0.000000 0.000000 0.000000
0.000000 0.000000 0.000000
0.000000 0.000000 0.000000
0.000000 0.000000 0.000000
0.000000 0.000000 0.000000
0.000000 0.000000 0.000000
0.000000 0.000000 0.000000
0.000000 0.000000 0.000000
0.000000 0.000000 0.000000
0.000000 0.000000 0.000000
0.000000 0.000000 0.000000
0.000000 0.000000 0.000000
0.000000 0.000000 0.000000
0.000000 0.000000 0.000000
0.000000 0.000000 0.000000
0.000000 0.000000 0.000000
0.000000 0.000000 0.000000
0.000000 0.000000 0.000000
0.000000 0.000000 0.000000
0.000000 0.000000 0.000000
0.000000 0.000000 0.000000
0.072131 -0.000130 0.000000
0.142749 -0.000403 0.000000
0.211547 -0.000853 0.000000
0.278517 -0.001422 0.000000
0.343679 -0.002054 0.000000
0.407045 -0.002716 0.000000
0.468622 -0.003392 0.000000
0.528411 -0.004073 0.000000
0.586413 -0.004754 0.000000
0.642628 -0.005430 0.000000
0.697057 -0.006097 0.000000
0.749699 -0.006752 0.000000
0.800554 -0.007389 0.000000
0.849623 -0.008005 0.000000
0.896905 -0.008597 0.000000
0.942400 -0.009158 0.000000
0.986108 -0.009685 0.000000
1.028028 -0.010172 0.000000
1.068162 -0.010614 0.000000
1.106508 -0.011006 0.000000
1.143066 -0.011341 0.000000
1.177837 -0.011613 0.000000
1.210821 -0.011817 0.000000
1.242017 -0.011946 0.000000
1.271426 -0.011995 0.000000
1.299048 -0.011958 0.000000
1.324883 -0.011832 0.000000
1.348932 -0.011612 0.000000
1.371195 -0.011294 0.000000
1.391673 -0.010878 0.000000
1.410366 -0.010362 0.000000
1.427275 -0.009748 0.000000
1.442401 -0.009037 0.000000
1.455745 -0.008235 0.000000
1.467307 -0.007346 0.000000
1.477088 -0.006379 0.000000
1.485089 -0.005342 0.000000
1.491310 -0.004246 0.000000
1.495752 -0.003103 0.000000
1.498416 -0.001924 0.000000
1.499302 -0.000725 0.000000
1.498409 0.000482 0.000000
1.495738 0.001683 0.000000
1.491288 0.002863 0.000000
1.485060 0.004010 0.000000
1.477052 0.005111 0.000000
1.467265 0.006156 0.000000
1.455697 0.007133 0.000000
1.442348 0.008036 0.000000
1.427218 0.008857 0.000000
1.410304 0.009591 0.000000
1.391608 0.010233 0.000000
1.371127 0.010783 0.000000
1.348862 0.011238 0.000000
1.324812 0.011599 0.000000
1.298976 0.011869 0.000000
1.271354 0.012049 0.000000
1.241946 0.012142 0.000000
1.210752 0.012154 0.000000
1.177770 0.012087 0.000000
1.143001 0.011947 0.000000
1.106446 0.011739 0.000000
1.068104 0.011468 0.000000
1.027974 0.011137 0.000000
0.986058 0.010753 0.000000
0.942356 0.010319 0.000000